<LesHouchesEvents version="1.0">
<!--
  File written by Pythia8::LHAup on 21 Jan 2019 at 17:47:07
-->
<init>
  2212  2212  1.000000e+02  1.000000e+02  0  0  0  0  3  1
  1.981063e+08  3.240256e+06  1.000000e+00   9999
</init>
<event>
     4  9999  1.000000e+00  5.009833e+00  7.570410e-03  2.408532e-01
       21    -1     0     0   102   101  0.0000000000e+00  0.0000000000e+00  4.1155852371e+00  4.1155852371e+00  0.0000000000e+00 0. 9.
        2    -1     0     0   101     0  0.0000000000e+00  0.0000000000e+00 -2.4230588397e+01  2.4230588397e+01  0.0000000000e+00 0. 9.
       21     1     1     2   102   103  1.2388666104e+00 -4.8528269184e+00  2.2023851637e+00  5.4713088003e+00  0.0000000000e+00 0. 9.
        2     1     1     2   103     0 -1.2388666104e+00  4.8528269184e+00 -2.2317388323e+01  2.2874864833e+01  3.3000000000e-01 0. 9.
#pdf   21    2  4.115585e-02  2.423059e-01  5.009833e+00  2.507107e+00  5.565871e-01
</event>
<event>
     4  9999  1.000000e+00  5.222139e+00  7.573741e-03  2.379507e-01
       21    -1     0     0   102   103  0.0000000000e+00  0.0000000000e+00  1.8121581900e+00  1.8121581900e+00  0.0000000000e+00 0. 9.
        2    -1     0     0   101     0  0.0000000000e+00  0.0000000000e+00 -1.6694810013e+01  1.6694810013e+01  0.0000000000e+00 0. 9.
       21     1     1     2   101   103 -5.2150558762e+00  1.5769959132e-01 -4.5316439880e+00  6.9106782725e+00  0.0000000000e+00 0. 9.
        2     1     1     2   102     0  5.2150558762e+00 -1.5769959132e-01 -1.0351007835e+01  1.1596289931e+01  3.3000000000e-01 0. 9.
#pdf   21    2  1.812158e-02  1.669481e-01  5.222139e+00  4.286751e+00  6.185068e-01
</event>
<event>
     4  9999  1.000000e+00  6.552459e+00  7.592009e-03  2.232416e-01
       21    -1     0     0   101   102  0.0000000000e+00  0.0000000000e+00  3.3628330742e+00  3.3628330742e+00  0.0000000000e+00 0. 9.
       21    -1     0     0   103   104  0.0000000000e+00  0.0000000000e+00 -2.1007706621e+01  2.1007706621e+01  0.0000000000e+00 0. 9.
       21     1     1     2   101   104 -1.3051709690e+00 -6.4211558422e+00 -1.6454059618e+01  1.7710753556e+01  0.0000000000e+00 0. 9.
       21     1     1     2   103   102  1.3051709690e+00  6.4211558422e+00 -1.1908139289e+00  6.6597861393e+00  0.0000000000e+00 0. 9.
#pdf   21   21  3.362833e-02  2.100771e-01  6.552459e+00  2.945376e+00  4.875718e-01
</event>
<event>
     4  9999  1.000000e+00  8.567959e+00  7.613712e-03  2.080432e-01
       21    -1     0     0   102   101  0.0000000000e+00  0.0000000000e+00  7.5216693378e+00  7.5216693378e+00  0.0000000000e+00 0. 9.
       21    -1     0     0   103   102  0.0000000000e+00  0.0000000000e+00 -1.0555033310e+01  1.0555033310e+01  0.0000000000e+00 0. 9.
       21     1     1     2   104   101 -4.6157389680e+00 -7.2183712445e+00  9.6421555725e-01  8.6220439158e+00  0.0000000000e+00 0. 9.
       21     1     1     2   103   104  4.6157389680e+00  7.2183712445e+00 -3.9975795293e+00  9.4546587320e+00  0.0000000000e+00 0. 9.
#pdf   21   21  7.521669e-02  1.055503e-01  8.567959e+00  1.500874e+00  1.058774e+00
</event>
<event>
     4  9999  1.000000e+00  6.378139e+00  7.589834e-03  2.248934e-01
       21    -1     0     0   102   103  0.0000000000e+00  0.0000000000e+00  1.2202012012e+01  1.2202012012e+01  0.0000000000e+00 0. 9.
        1    -1     0     0   101     0  0.0000000000e+00  0.0000000000e+00 -3.9744557437e+00  3.9744557437e+00  0.0000000000e+00 0. 9.
       21     1     1     2   101   103  6.1216877615e+00  1.7776213060e+00  7.3566510763e+00  9.7342341053e+00  0.0000000000e+00 0. 9.
        1     1     1     2   102     0 -6.1216877615e+00 -1.7776213060e+00  8.7090519235e-01  6.4422336508e+00  3.3000000000e-01 0. 9.
#pdf   21    1  1.220201e-01  3.974456e-02  6.378139e+00  9.329372e-01  4.306552e-01
</event>
<event>
     4  9999  1.000000e+00  5.305504e+00  7.575013e-03  2.368616e-01
       21    -1     0     0   102   103  0.0000000000e+00  0.0000000000e+00  1.0681186612e+01  1.0681186612e+01  0.0000000000e+00 0. 9.
        1    -1     0     0   101     0  0.0000000000e+00  0.0000000000e+00 -4.1036177549e+00  4.1036177549e+00  0.0000000000e+00 0. 9.
       21     1     1     2   101   103 -5.2534532786e+00 -7.1738842211e-01  7.7058938730e+00  9.3538343946e+00  0.0000000000e+00 0. 9.
        1     1     1     2   102     0  5.2534532786e+00  7.1738842211e-01 -1.1283250159e+00  5.4309699723e+00  3.3000000000e-01 0. 9.
#pdf   21    1  1.068119e-01  4.103618e-02  5.305504e+00  1.095865e+00  4.258885e-01
</event>
<event>
     4  9999  1.000000e+00  7.870591e+00  7.606829e-03  2.126256e-01
       21    -1     0     0   102   101  0.0000000000e+00  0.0000000000e+00  3.8083738432e+00  3.8083738432e+00  0.0000000000e+00 0. 9.
       21    -1     0     0   104   103  0.0000000000e+00  0.0000000000e+00 -1.8379263009e+01  1.8379263009e+01  0.0000000000e+00 0. 9.
       21     1     1     2   104   101  4.8598848625e-01  7.8555721952e+00 -1.1047417164e+01  1.3564351268e+01  0.0000000000e+00 0. 9.
       21     1     1     2   102   103 -4.8598848625e-01 -7.8555721952e+00 -3.5234720018e+00  8.6232855844e+00  0.0000000000e+00 0. 9.
#pdf   21   21  3.808374e-02  1.837926e-01  7.870591e+00  2.704859e+00  5.566992e-01
</event>
<event>
     4  9999  1.000000e+00  5.293028e+00  7.574824e-03  2.370228e-01
       21    -1     0     0   102   101  0.0000000000e+00  0.0000000000e+00  2.0471211188e+00  2.0471211188e+00  0.0000000000e+00 0. 9.
       21    -1     0     0   104   103  0.0000000000e+00  0.0000000000e+00 -1.4506747450e+01  1.4506747450e+01  0.0000000000e+00 0. 9.
       21     1     1     2   104   101 -5.2905493774e+00  1.6196952983e-01 -8.1989981815e+00  9.7590838722e+00  0.0000000000e+00 0. 9.
       21     1     1     2   102   103  5.2905493774e+00 -1.6196952983e-01 -4.2606281495e+00  6.7947846965e+00  0.0000000000e+00 0. 9.
#pdf   21   21  2.047121e-02  1.450675e-01  5.293028e+00  3.996820e+00  7.882283e-01
</event>
<event>
     4  9999  1.000000e+00  5.091985e+00  7.571715e-03  2.397073e-01
       21    -1     0     0   102   101  0.0000000000e+00  0.0000000000e+00  1.9317827141e+01  1.9317827141e+01  0.0000000000e+00 0. 9.
       21    -1     0     0   104   103  0.0000000000e+00  0.0000000000e+00 -6.7467910280e+00  6.7467910280e+00  0.0000000000e+00 0. 9.
       21     1     1     2   104   101 -2.4379917253e+00 -4.4704036176e+00  1.7949700850e+01  1.8657976116e+01  0.0000000000e+00 0. 9.
       21     1     1     2   102   103  2.4379917253e+00  4.4704036176e+00 -5.3786647364e+00  7.4066420531e+00  0.0000000000e+00 0. 9.
#pdf   21   21  1.931783e-01  6.746791e-02  5.091985e+00  5.713890e-01  1.694883e+00
</event>
<event>
     4  9999  1.000000e+00  5.500044e+00  7.577907e-03  2.344217e-01
       21    -1     0     0   102   101  0.0000000000e+00  0.0000000000e+00  1.8163670371e+00  1.8163670371e+00  0.0000000000e+00 0. 9.
       21    -1     0     0   104   103  0.0000000000e+00  0.0000000000e+00 -4.4082159836e+01  4.4082159836e+01  0.0000000000e+00 0. 9.
       21     1     1     2   104   101  4.9994210603e+00  2.2926571247e+00 -3.0306465148e+00  6.2797536518e+00  0.0000000000e+00 0. 9.
       21     1     1     2   102   103 -4.9994210603e+00 -2.2926571247e+00 -3.9235146284e+01  3.9618773221e+01  0.0000000000e+00 0. 9.
#pdf   21   21  1.816367e-02  4.408216e-01  5.500044e+00  4.318262e+00  1.185258e-01
</event>
<event>
     4  9999  1.000000e+00  5.825352e+00  7.582530e-03  2.306309e-01
       21    -1     0     0   101   102  0.0000000000e+00  0.0000000000e+00  8.8342824352e+00  8.8342824352e+00  0.0000000000e+00 0. 9.
       21    -1     0     0   102   103  0.0000000000e+00  0.0000000000e+00 -4.7155889526e+00  4.7155889526e+00  0.0000000000e+00 0. 9.
       21     1     1     2   101   104  3.0871433749e+00  4.9400674789e+00  4.9766137328e+00  7.6616842247e+00  0.0000000000e+00 0. 9.
       21     1     1     2   104   103 -3.0871433749e+00 -4.9400674789e+00 -8.5792025013e-01  5.8881871632e+00  0.0000000000e+00 0. 9.
#pdf   21   21  8.834282e-02  4.715589e-02  5.825352e+00  1.315652e+00  2.276129e+00
</event>
<event>
     4  9999  1.000000e+00  5.376554e+00  7.576082e-03  2.359544e-01
       21    -1     0     0   102   101  0.0000000000e+00  0.0000000000e+00  4.2379961435e+00  4.2379961435e+00  0.0000000000e+00 0. 9.
       21    -1     0     0   104   103  0.0000000000e+00  0.0000000000e+00 -2.3155652638e+01  2.3155652638e+01  0.0000000000e+00 0. 9.
       21     1     1     2   104   101 -3.1347134839e+00  4.3681700337e+00  2.0451070884e+00  5.7523735164e+00  0.0000000000e+00 0. 9.
       21     1     1     2   102   103  3.1347134839e+00 -4.3681700337e+00 -2.0962763583e+01  2.1641275265e+01  0.0000000000e+00 0. 9.
#pdf   21   21  4.237996e-02  2.315565e-01  5.376554e+00  2.463806e+00  4.524846e-01
</event>
<event>
     4  9999  1.000000e+00  5.483062e+00  7.577659e-03  2.346293e-01
        2    -1     0     0   101     0  0.0000000000e+00  0.0000000000e+00  6.7905739172e+00  6.7905739172e+00  0.0000000000e+00 0. 9.
       21    -1     0     0   102   103  0.0000000000e+00  0.0000000000e+00 -4.4506922116e+00  4.4506922116e+00  0.0000000000e+00 0. 9.
        2     1     1     2   102     0 -1.2483401135e+00  5.3339930205e+00  1.5780235655e+00  5.7104196830e+00  3.3000000000e-01 0. 9.
       21     1     1     2   101   103  1.2483401135e+00 -5.3339930205e+00  7.6185814001e-01  5.5308464459e+00  0.0000000000e+00 0. 9.
#pdf    2   21  6.790574e-02  4.450692e-02  5.483062e+00  6.081081e-01  2.376675e+00
</event>
<event>
     4  9999  1.000000e+00  5.331033e+00  7.575399e-03  2.365334e-01
       21    -1     0     0   103   102  0.0000000000e+00  0.0000000000e+00  2.4366139993e+00  2.4366139993e+00  0.0000000000e+00 0. 9.
       -1    -1     0     0     0   101  0.0000000000e+00  0.0000000000e+00 -1.1866287389e+01  1.1866287389e+01  0.0000000000e+00 0. 9.
       21     1     1     2   103   101  3.4395760634e+00 -4.0664157556e+00 -5.6439569779e+00  7.7601978687e+00  0.0000000000e+00 0. 9.
       -1     1     1     2     0   102 -3.4395760634e+00  4.0664157556e+00 -3.7857164115e+00  6.5427035193e+00  3.3000000000e-01 0. 9.
#pdf   21   -1  2.436614e-02  1.186629e-01  5.331033e+00  3.593857e+00  9.098356e-02
</event>
<event>
     4  9999  1.000000e+00  5.506395e+00  7.578000e-03  2.343444e-01
       21    -1     0     0   102   101  0.0000000000e+00  0.0000000000e+00  1.1836170482e+01  1.1836170482e+01  0.0000000000e+00 0. 9.
        4    -1     0     0   101     0  0.0000000000e+00  0.0000000000e+00 -6.4480790359e+00  6.4480790359e+00  0.0000000000e+00 0. 9.
       21     1     1     2   102   103 -3.6143180954e+00  4.1002194718e+00  9.7193914480e+00  1.1150859390e+01  0.0000000000e+00 0. 9.
        4     1     1     2   103     0  3.6143180954e+00 -4.1002194718e+00 -4.3313000020e+00  7.1333901280e+00  1.5000000000e+00 0. 9.
#pdf   21    4  1.183617e-01  6.448079e-02  5.506395e+00  9.806931e-01  3.445377e-02
</event>
<event>
     4  9999  1.000000e+00  7.325860e+00  7.601023e-03  2.166571e-01
        2    -1     0     0   101     0  0.0000000000e+00  0.0000000000e+00  1.4253309795e+01  1.4253309795e+01  0.0000000000e+00 0. 9.
       21    -1     0     0   102   103  0.0000000000e+00  0.0000000000e+00 -1.6305594162e+01  1.6305594162e+01  0.0000000000e+00 0. 9.
        2     1     1     2   102     0  7.1517093681e+00 -1.5838887020e+00  1.2371805112e+01  1.4381450276e+01  3.3000000000e-01 0. 9.
       21     1     1     2   101   103 -7.1517093681e+00  1.5838887020e+00 -1.4424089479e+01  1.6177453681e+01  0.0000000000e+00 0. 9.
#pdf    2   21  1.425331e-01  1.630559e-01  7.325860e+00  6.180700e-01  6.544530e-01
</event>
<event>
     4  9999  1.000000e+00  6.660318e+00  7.593327e-03  2.222532e-01
       21    -1     0     0   101   102  0.0000000000e+00  0.0000000000e+00  1.5747451362e+01  1.5747451362e+01  0.0000000000e+00 0. 9.
       21    -1     0     0   103   104  0.0000000000e+00  0.0000000000e+00 -9.1832711583e+00  9.1832711583e+00  0.0000000000e+00 0. 9.
       21     1     1     2   101   104  6.2509804712e+00  2.2989310736e+00 -7.0967856230e+00  9.7326361851e+00  0.0000000000e+00 0. 9.
       21     1     1     2   103   102 -6.2509804712e+00 -2.2989310736e+00  1.3660965827e+01  1.5198086335e+01  0.0000000000e+00 0. 9.
#pdf   21   21  1.574745e-01  9.183271e-02  6.660318e+00  6.930612e-01  1.253904e+00
</event>
<event>
     4  9999  1.000000e+00  5.502616e+00  7.577945e-03  2.343904e-01
       21    -1     0     0   102   101  0.0000000000e+00  0.0000000000e+00  1.4716501648e+01  1.4716501648e+01  0.0000000000e+00 0. 9.
       21    -1     0     0   103   102  0.0000000000e+00  0.0000000000e+00 -2.6838177956e+00  2.6838177956e+00  0.0000000000e+00 0. 9.
       21     1     1     2   104   101 -4.8993270618e+00 -2.5050704519e+00  1.0219327959e+01  1.1606612235e+01  0.0000000000e+00 0. 9.
       21     1     1     2   103   104  4.8993270618e+00  2.5050704519e+00  1.8133558931e+00  5.7937072089e+00  0.0000000000e+00 0. 9.
#pdf   21   21  1.471650e-01  2.683818e-02  5.502616e+00  7.714956e-01  3.390558e+00
</event>
<event>
     4  9999  1.000000e+00  5.009686e+00  7.570407e-03  2.408552e-01
       21    -1     0     0   102   101  0.0000000000e+00  0.0000000000e+00  1.6363414573e+01  1.6363414573e+01  0.0000000000e+00 0. 9.
       21    -1     0     0   104   103  0.0000000000e+00  0.0000000000e+00 -4.0310627549e+00  4.0310627549e+00  0.0000000000e+00 0. 9.
       21     1     1     2   104   101  3.0612882198e+00 -3.9655356404e+00 -1.8600531464e+00  5.3438521862e+00  0.0000000000e+00 0. 9.
       21     1     1     2   102   103 -3.0612882198e+00  3.9655356404e+00  1.4192404964e+01  1.5050625141e+01  0.0000000000e+00 0. 9.
#pdf   21   21  1.636341e-01  4.031063e-02  5.009686e+00  6.941378e-01  2.545075e+00
</event>
<event>
     4  9999  1.000000e+00  5.662848e+00  7.580253e-03  2.324819e-01
       21    -1     0     0   102   103  0.0000000000e+00  0.0000000000e+00  7.0529719135e+00  7.0529719135e+00  0.0000000000e+00 0. 9.
        2    -1     0     0   101     0  0.0000000000e+00  0.0000000000e+00 -4.4507869364e+01  4.4507869364e+01  0.0000000000e+00 0. 9.
       21     1     1     2   101   103 -5.6621422130e+00  4.9342589051e-02  5.7002087103e+00  8.0345919917e+00  0.0000000000e+00 0. 9.
        2     1     1     2   102     0  5.6621422130e+00 -4.9342589051e-02 -4.3155106161e+01  4.3526249286e+01  3.3000000000e-01 0. 9.
#pdf   21    2  7.052972e-02  4.450787e-01  5.662848e+00  1.625943e+00  2.732205e-01
</event>
<event>
     4  9999  1.000000e+00  5.725673e+00  7.581141e-03  2.317566e-01
       21    -1     0     0   101   102  0.0000000000e+00  0.0000000000e+00  9.2701920014e+00  9.2701920014e+00  0.0000000000e+00 0. 9.
       -1    -1     0     0     0   101  0.0000000000e+00  0.0000000000e+00 -5.1587731169e+00  5.1587731169e+00  0.0000000000e+00 0. 9.
       21     1     1     2   103   102  5.7218494990e+00 -8.0344100312e-02  6.0980329119e+00  8.3625368316e+00  0.0000000000e+00 0. 9.
       -1     1     1     2     0   103 -5.7218494990e+00  8.0344100312e-02 -1.9866140274e+00  6.0664282867e+00  3.3000000000e-01 0. 9.
#pdf   21   -1  9.270192e-02  5.158773e-02  5.725673e+00  1.256536e+00  1.819017e-01
</event>
<event>
     4  9999  1.000000e+00  5.064989e+00  7.571288e-03  2.400806e-01
        2    -1     0     0   101     0  0.0000000000e+00  0.0000000000e+00  2.5212838574e+01  2.5212838574e+01  0.0000000000e+00 0. 9.
       21    -1     0     0   102   101  0.0000000000e+00  0.0000000000e+00 -1.4742104132e+00  1.4742104132e+00  0.0000000000e+00 0. 9.
        2     1     1     2   103     0 -3.6517226988e+00  3.5044922119e+00  1.9299515508e+01  1.9954867656e+01  3.3000000000e-01 0. 9.
       21     1     1     2   102   103  3.6517226988e+00 -3.5044922119e+00  4.4391126535e+00  6.7321813317e+00  0.0000000000e+00 0. 9.
#pdf    2   21  2.521284e-01  1.474210e-02  5.064989e+00  5.446527e-01  4.792313e+00
</event>
<event>
     4  9999  1.000000e+00  6.992910e+00  7.597263e-03  2.193544e-01
       21    -1     0     0   101   102  0.0000000000e+00  0.0000000000e+00  2.8189312407e+00  2.8189312407e+00  0.0000000000e+00 0. 9.
       21    -1     0     0   103   104  0.0000000000e+00  0.0000000000e+00 -2.8416058397e+01  2.8416058397e+01  0.0000000000e+00 0. 9.
       21     1     1     2   101   104  6.5019626492e+00  2.5739609354e+00 -3.0513771377e+00  7.6296589455e+00  0.0000000000e+00 0. 9.
       21     1     1     2   103   102 -6.5019626492e+00 -2.5739609354e+00 -2.2545750019e+01  2.3605330692e+01  0.0000000000e+00 0. 9.
#pdf   21   21  2.818931e-02  2.841606e-01  6.992910e+00  3.347519e+00  3.129676e-01
</event>
<event>
     4  9999  1.000000e+00  6.191798e+00  7.587444e-03  2.267383e-01
       21    -1     0     0   101   102  0.0000000000e+00  0.0000000000e+00  5.9351505552e+00  5.9351505552e+00  0.0000000000e+00 0. 9.
       21    -1     0     0   102   103  0.0000000000e+00  0.0000000000e+00 -4.9395544175e+01  4.9395544175e+01  0.0000000000e+00 0. 9.
       21     1     1     2   101   104  5.4712565050e+00  2.8989151297e+00  4.0628734136e+00  7.4057610715e+00  0.0000000000e+00 0. 9.
       21     1     1     2   104   103 -5.4712565050e+00 -2.8989151297e+00 -4.7523267033e+01  4.7924933659e+01  0.0000000000e+00 0. 9.
#pdf   21   21  5.935151e-02  4.939554e-01  6.191798e+00  1.886415e+00  6.284402e-02
</event>
<event>
     4  9999  1.000000e+00  5.586283e+00  7.579158e-03  2.333831e-01
        3    -1     0     0   101     0  0.0000000000e+00  0.0000000000e+00  5.2194064641e+00  5.2194064641e+00  0.0000000000e+00 0. 9.
        1    -1     0     0   102     0  0.0000000000e+00  0.0000000000e+00 -6.0826691525e+00  6.0826691525e+00  0.0000000000e+00 0. 9.
        3     1     1     2   102     0  1.0895079938e+00  5.4628909674e+00  3.0373241766e-01  5.6011122798e+00  5.0000000000e-01 0. 9.
        1     1     1     2   101     0 -1.0895079938e+00 -5.4628909674e+00 -1.1669951060e+00  5.7009633368e+00  3.3000000000e-01 0. 9.
#pdf    3    1  5.219406e-02  6.082669e-02  5.586283e+00  6.393841e-02  4.176139e-01
</event>
<event>
     4  9999  1.000000e+00  5.069224e+00  7.571355e-03  2.400219e-01
       21    -1     0     0   101   102  0.0000000000e+00  0.0000000000e+00  2.0663628490e+01  2.0663628490e+01  0.0000000000e+00 0. 9.
       21    -1     0     0   103   104  0.0000000000e+00  0.0000000000e+00 -2.2052894084e+00  2.2052894084e+00  0.0000000000e+00 0. 9.
       21     1     1     2   101   104  4.7329040607e+00  1.8156676887e+00  1.6780145086e+01  1.7529127164e+01  0.0000000000e+00 0. 9.
       21     1     1     2   103   102 -4.7329040607e+00 -1.8156676887e+00  1.6781939951e+00  5.3397907345e+00  0.0000000000e+00 0. 9.
#pdf   21   21  2.066363e-01  2.205289e-02  5.069224e+00  5.276299e-01  3.795377e+00
</event>
<event>
     4  9999  1.000000e+00  8.265889e+00  7.610801e-03  2.099562e-01
       21    -1     0     0   101   102  0.0000000000e+00  0.0000000000e+00  2.5088091947e+00  2.5088091947e+00  0.0000000000e+00 0. 9.
       21    -1     0     0   103   104  0.0000000000e+00  0.0000000000e+00 -3.1960239049e+01  3.1960239049e+01  0.0000000000e+00 0. 9.
       21     1     1     2   101   104 -7.7500174945e+00  2.8743966377e+00 -8.0981833340e+00  1.1571754427e+01  0.0000000000e+00 0. 9.
       21     1     1     2   103   102  7.7500174945e+00 -2.8743966377e+00 -2.1353246520e+01  2.2897293817e+01  0.0000000000e+00 0. 9.
#pdf   21   21  2.508809e-02  3.196024e-01  8.265889e+00  3.670983e+00  2.366171e-01
</event>
<event>
     4  9999  1.000000e+00  5.228515e+00  7.573839e-03  2.378665e-01
       21    -1     0     0   102   103  0.0000000000e+00  0.0000000000e+00  4.6891681094e+00  4.6891681094e+00  0.0000000000e+00 0. 9.
        2    -1     0     0   101     0  0.0000000000e+00  0.0000000000e+00 -1.1540858337e+01  1.1540858337e+01  0.0000000000e+00 0. 9.
       21     1     1     2   101   103  4.5577408541e+00  2.5567302839e+00  2.2815427579e+00  5.7022196375e+00  0.0000000000e+00 0. 9.
        2     1     1     2   102     0 -4.5577408541e+00 -2.5567302839e+00 -9.1332329854e+00  1.0527806809e+01  3.3000000000e-01 0. 9.
#pdf   21    2  4.689168e-02  1.154086e-01  5.228515e+00  2.279610e+00  6.308483e-01
</event>
<event>
     4  9999  1.000000e+00  5.579656e+00  7.579063e-03  2.334620e-01
        1    -1     0     0   101     0  0.0000000000e+00  0.0000000000e+00  2.7623233656e+01  2.7623233656e+01  0.0000000000e+00 0. 9.
       21    -1     0     0   102   103  0.0000000000e+00  0.0000000000e+00 -2.6785638329e+00  2.6785638329e+00  0.0000000000e+00 0. 9.
        1     1     1     2   102     0 -4.3110420871e+00  3.5390073648e+00  2.4003661993e+01  2.4645371697e+01  3.3000000000e-01 0. 9.
       21     1     1     2   101   103  4.3110420871e+00 -3.5390073648e+00  9.4100783027e-01  5.6564257921e+00  0.0000000000e+00 0. 9.
#pdf    1   21  2.762323e-01  2.678564e-02  5.579656e+00  2.313090e-01  3.399290e+00
</event>
<event>
     4  9999  1.000000e+00  5.486163e+00  7.577704e-03  2.345913e-01
       21    -1     0     0   102   101  0.0000000000e+00  0.0000000000e+00  2.2764574500e+00  2.2764574500e+00  0.0000000000e+00 0. 9.
        1    -1     0     0   101     0  0.0000000000e+00  0.0000000000e+00 -2.5718031192e+01  2.5718031192e+01  0.0000000000e+00 0. 9.
       21     1     1     2   102   103  9.4249731192e-01  5.4020081910e+00 -1.9627913659e+00  5.8243062784e+00  0.0000000000e+00 0. 9.
        1     1     1     2   103     0 -9.4249731192e-01 -5.4020081910e+00 -2.1478782376e+01  2.2170182363e+01  3.3000000000e-01 0. 9.
#pdf   21    1  2.276457e-02  2.571803e-01  5.486163e+00  3.764222e+00  2.516129e-01
</event>
<event>
     4  9999  1.000000e+00  5.386292e+00  7.576228e-03  2.358315e-01
       21    -1     0     0   102   103  0.0000000000e+00  0.0000000000e+00  3.8690877635e+01  3.8690877635e+01  0.0000000000e+00 0. 9.
        1    -1     0     0   101     0  0.0000000000e+00  0.0000000000e+00 -1.4214062128e+00  1.4214062128e+00  0.0000000000e+00 0. 9.
       21     1     1     2   101   103 -4.7032328523e+00  2.6197384717e+00  3.2404462203e+01  3.2848631625e+01  0.0000000000e+00 0. 9.
        1     1     1     2   102     0  4.7032328523e+00 -2.6197384717e+00  4.8650092193e+00  7.2636522237e+00  3.3000000000e-01 0. 9.
#pdf   21    1  3.869088e-01  1.421406e-02  5.386292e+00  1.863793e-01  4.657312e-01
</event>
<event>
     4  9999  1.000000e+00  5.580696e+00  7.579078e-03  2.334497e-01
       21    -1     0     0   102   101  0.0000000000e+00  0.0000000000e+00  9.1226479961e+00  9.1226479961e+00  0.0000000000e+00 0. 9.
       21    -1     0     0   104   103  0.0000000000e+00  0.0000000000e+00 -3.6449077939e+00  3.6449077939e+00  0.0000000000e+00 0. 9.
       21     1     1     2   104   101  4.4512497201e+00 -3.3660868444e+00  1.1318879535e+00  5.6943248111e+00  0.0000000000e+00 0. 9.
       21     1     1     2   102   103 -4.4512497201e+00  3.3660868444e+00  4.3458522486e+00  7.0732309789e+00  0.0000000000e+00 0. 9.
#pdf   21   21  9.122648e-02  3.644908e-02  5.580696e+00  1.278952e+00  2.754865e+00
</event>
<event>
     4  9999  1.000000e+00  5.429434e+00  7.576869e-03  2.352914e-01
       21    -1     0     0   102   103  0.0000000000e+00  0.0000000000e+00  7.0608850890e-01  7.0608850890e-01  0.0000000000e+00 0. 9.
        1    -1     0     0   101     0  0.0000000000e+00  0.0000000000e+00 -4.8716153623e+01  4.8716153623e+01  0.0000000000e+00 0. 9.
       21     1     1     2   101   103 -1.5896711039e+00  5.1870083144e+00 -3.3323478662e+01  3.3762202825e+01  0.0000000000e+00 0. 9.
        1     1     1     2   102     0  1.5896711039e+00 -5.1870083144e+00 -1.4686586452e+01  1.5660039306e+01  3.3000000000e-01 0. 9.
#pdf   21    1  7.060885e-03  4.871615e-01  5.429434e+00  7.160021e+00  6.882030e-02
</event>
<event>
     4  9999  1.000000e+00  5.142375e+00  7.572505e-03  2.390189e-01
       21    -1     0     0   101   102  0.0000000000e+00  0.0000000000e+00  1.3636769652e+01  1.3636769652e+01  0.0000000000e+00 0. 9.
       21    -1     0     0   103   104  0.0000000000e+00  0.0000000000e+00 -2.6941267349e+00  2.6941267349e+00  0.0000000000e+00 0. 9.
       21     1     1     2   101   104 -4.4140980568e+00 -2.6381356933e+00  1.1488523171e+00  5.2691444503e+00  0.0000000000e+00 0. 9.
       21     1     1     2   103   102  4.4140980568e+00  2.6381356933e+00  9.7937905996e+00  1.1061751936e+01  0.0000000000e+00 0. 9.
#pdf   21   21  1.363677e-01  2.694127e-02  5.142375e+00  8.473057e-01  3.355743e+00
</event>
<event>
     4  9999  1.000000e+00  5.134303e+00  7.572379e-03  2.391285e-01
       -1    -1     0     0     0   101  0.0000000000e+00  0.0000000000e+00  3.4775930080e+00  3.4775930080e+00  0.0000000000e+00 0. 9.
        1    -1     0     0   101     0  0.0000000000e+00  0.0000000000e+00 -5.5804949934e+01  5.5804949934e+01  0.0000000000e+00 0. 9.
       -1     1     1     2     0   102  5.0869105856e+00 -6.8528355714e-01  1.3832572758e+00  5.3262156875e+00  3.3000000000e-01 0. 9.
        1     1     1     2   102     0 -5.0869105856e+00  6.8528355714e-01 -5.3710614202e+01  5.3956327254e+01  3.3000000000e-01 0. 9.
#pdf   -1    1  3.477593e-02  5.580495e-01  5.134303e+00  2.262010e-01  4.073838e-02
</event>
<event>
     4  9999  1.000000e+00  5.146689e+00  7.572573e-03  2.389605e-01
       21    -1     0     0   102   103  0.0000000000e+00  0.0000000000e+00  7.1915651126e+00  7.1915651126e+00  0.0000000000e+00 0. 9.
        3    -1     0     0   101     0  0.0000000000e+00  0.0000000000e+00 -1.6089330865e+01  1.6089330865e+01  0.0000000000e+00 0. 9.
       21     1     1     2   101   103 -1.7561017225e+00 -4.8348634480e+00  5.7695741724e+00  7.7296690713e+00  0.0000000000e+00 0. 9.
        3     1     1     2   102     0  1.7561017225e+00  4.8348634480e+00 -1.4667339925e+01  1.5551226906e+01  5.0000000000e-01 0. 9.
#pdf   21    3  7.191565e-02  1.608933e-01  5.146689e+00  1.602366e+00  2.016253e-02
</event>
<event>
     4  9999  1.000000e+00  5.984513e+00  7.584700e-03  2.288946e-01
       21    -1     0     0   101   102  0.0000000000e+00  0.0000000000e+00  5.1672401411e+00  5.1672401411e+00  0.0000000000e+00 0. 9.
       -1    -1     0     0     0   101  0.0000000000e+00  0.0000000000e+00 -4.8926429223e+01  4.8926429223e+01  0.0000000000e+00 0. 9.
       21     1     1     2   103   102  5.1112191903e+00 -3.1116116486e+00  3.1780073831e+00  6.7754276315e+00  0.0000000000e+00 0. 9.
       -1     1     1     2     0   103 -5.1112191903e+00  3.1116116486e+00 -4.6937196465e+01  4.7318241733e+01  3.3000000000e-01 0. 9.
#pdf   21   -1  5.167240e-02  4.892643e-01  5.984513e+00  2.117048e+00  2.148724e-03
</event>
<event>
     4  9999  1.000000e+00  5.173012e+00  7.572982e-03  2.386055e-01
       21    -1     0     0   101   102  0.0000000000e+00  0.0000000000e+00  6.7023732833e+00  6.7023732833e+00  0.0000000000e+00 0. 9.
       21    -1     0     0   103   101  0.0000000000e+00  0.0000000000e+00 -1.0160718025e+01  1.0160718025e+01  0.0000000000e+00 0. 9.
        2     1     1     2   103     0  9.5922978112e-01 -5.0790885932e+00 -8.2932390027e+00  9.7777285637e+00  3.3000000000e-01 0. 9.
       -2     1     1     2     0   102 -9.5922978112e-01  5.0790885932e+00  4.8348942609e+00  7.0853627447e+00  3.3000000000e-01 0. 9.
#pdf   21   21  6.702373e-02  1.016072e-01  5.173012e+00  1.704280e+00  1.155471e+00
</event>
<event>
     4  9999  1.000000e+00  6.940774e+00  7.596658e-03  2.197946e-01
       21    -1     0     0   101   102  0.0000000000e+00  0.0000000000e+00  1.7600682952e+01  1.7600682952e+01  0.0000000000e+00 0. 9.
       21    -1     0     0   103   101  0.0000000000e+00  0.0000000000e+00 -4.0811942619e+00  4.0811942619e+00  0.0000000000e+00 0. 9.
       21     1     1     2   103   104 -5.7656703927e+00 -3.8641151102e+00  5.3828023614e-01  6.9616152059e+00  0.0000000000e+00 0. 9.
       21     1     1     2   104   102  5.7656703927e+00  3.8641151102e+00  1.2981208454e+01  1.4720262008e+01  0.0000000000e+00 0. 9.
#pdf   21   21  1.760068e-01  4.081194e-02  6.940774e+00  6.021191e-01  2.556105e+00
</event>
<event>
     4  9999  1.000000e+00  6.794901e+00  7.594942e-03  2.210539e-01
       21    -1     0     0   102   103  0.0000000000e+00  0.0000000000e+00  1.4864334345e+01  1.4864334345e+01  0.0000000000e+00 0. 9.
        3    -1     0     0   101     0  0.0000000000e+00  0.0000000000e+00 -3.4546272815e+00  3.4546272815e+00  0.0000000000e+00 0. 9.
       21     1     1     2   101   103 -6.7669107262e+00  5.1698298231e-01  8.6035114562e+00  1.0958045517e+01  0.0000000000e+00 0. 9.
        3     1     1     2   102     0  6.7669107262e+00 -5.1698298231e-01  2.8061956070e+00  7.3609161091e+00  5.0000000000e-01 0. 9.
#pdf   21    3  1.486433e-01  3.454627e-02  6.794901e+00  7.392418e-01  9.232776e-02
</event>
<event>
     4  9999  1.000000e+00  5.265153e+00  7.574400e-03  2.373854e-01
       21    -1     0     0   102   101  0.0000000000e+00  0.0000000000e+00  3.4963515765e+00  3.4963515765e+00  0.0000000000e+00 0. 9.
        4    -1     0     0   101     0  0.0000000000e+00  0.0000000000e+00 -9.7440025350e+00  9.7440025350e+00  0.0000000000e+00 0. 9.
       21     1     1     2   102   103  4.7185560392e+00 -2.1328845885e+00 -2.6206712649e-01  5.1848478224e+00  0.0000000000e+00 0. 9.
        4     1     1     2   103     0 -4.7185560392e+00  2.1328845885e+00 -5.9855838320e+00  8.0555062890e+00  1.5000000000e+00 0. 9.
#pdf   21    4  3.496352e-02  9.744003e-02  5.265153e+00  2.825565e+00  2.249158e-02
</event>
<event>
     4  9999  1.000000e+00  5.219480e+00  7.573700e-03  2.379859e-01
       21    -1     0     0   101   102  0.0000000000e+00  0.0000000000e+00  3.1876220077e+00  3.1876220077e+00  0.0000000000e+00 0. 9.
       21    -1     0     0   103   104  0.0000000000e+00  0.0000000000e+00 -9.0367779155e+00  9.0367779155e+00  0.0000000000e+00 0. 9.
       21     1     1     2   101   104  4.8020156498e-01 -5.1973433375e+00 -4.3482747150e+00  6.7934133032e+00  0.0000000000e+00 0. 9.
       21     1     1     2   103   102 -4.8020156498e-01  5.1973433375e+00 -1.5008811928e+00  5.4309866199e+00  0.0000000000e+00 0. 9.
#pdf   21   21  3.187622e-02  9.036778e-02  5.219480e+00  3.008327e+00  1.296278e+00
</event>
<event>
     4  9999  1.000000e+00  6.925223e+00  7.596477e-03  2.199269e-01
        2    -1     0     0   101     0  0.0000000000e+00  0.0000000000e+00  1.3014649258e+01  1.3014649258e+01  0.0000000000e+00 0. 9.
       21    -1     0     0   102   101  0.0000000000e+00  0.0000000000e+00 -1.7504435201e+01  1.7504435201e+01  0.0000000000e+00 0. 9.
        2     1     1     2   103     0 -4.9493845130e-01 -6.9066843836e+00  1.1311758347e+01  1.3266952557e+01  3.3000000000e-01 0. 9.
       21     1     1     2   102   103  4.9493845130e-01  6.9066843836e+00 -1.5801544289e+01  1.7252131902e+01  0.0000000000e+00 0. 9.
#pdf    2   21  1.301465e-01  1.750444e-01  6.925223e+00  6.238312e-01  6.064403e-01
</event>
<event>
     4  9999  1.000000e+00  6.020682e+00  7.585186e-03  2.285100e-01
        2    -1     0     0   101     0  0.0000000000e+00  0.0000000000e+00  2.0311096523e+01  2.0311096523e+01  0.0000000000e+00 0. 9.
       21    -1     0     0   102   103  0.0000000000e+00  0.0000000000e+00 -1.8237340514e+00  1.8237340514e+00  0.0000000000e+00 0. 9.
        2     1     1     2   102     0 -4.6313352455e+00  3.8400631155e+00  1.0869046806e+01  1.2427406381e+01  3.3000000000e-01 0. 9.
       21     1     1     2   101   103  4.6313352455e+00 -3.8400631155e+00  7.6183156654e+00  9.7074241931e+00  0.0000000000e+00 0. 9.
#pdf    2   21  2.031110e-01  1.823734e-02  6.020682e+00  5.849755e-01  4.363757e+00
</event>
<event>
     4  9999  1.000000e+00  5.132086e+00  7.572345e-03  2.391586e-01
       21    -1     0     0   102   103  0.0000000000e+00  0.0000000000e+00  2.4461481415e+00  2.4461481415e+00  0.0000000000e+00 0. 9.
        2    -1     0     0   101     0  0.0000000000e+00  0.0000000000e+00 -4.2527915811e+01  4.2527915811e+01  0.0000000000e+00 0. 9.
       21     1     1     2   101   103 -2.0855479339e+00  4.6877513116e+00 -6.0772536839e-01  5.1666093976e+00  0.0000000000e+00 0. 9.
        2     1     1     2   102     0  2.0855479339e+00 -4.6877513116e+00 -3.9474042301e+01  3.9807454555e+01  3.3000000000e-01 0. 9.
#pdf   21    2  2.446148e-02  4.252792e-01  5.132086e+00  3.566662e+00  3.070252e-01
</event>
<event>
     4  9999  1.000000e+00  7.066730e+00  7.598111e-03  2.187396e-01
       21    -1     0     0   102   101  0.0000000000e+00  0.0000000000e+00  3.2412389030e+00  3.2412389030e+00  0.0000000000e+00 0. 9.
        2    -1     0     0   101     0  0.0000000000e+00  0.0000000000e+00 -1.5408404374e+01  1.5408404374e+01  0.0000000000e+00 0. 9.
       21     1     1     2   102   103 -2.9670044334e+00 -6.4094558631e+00 -6.0006062995e+00  9.2677675699e+00  0.0000000000e+00 0. 9.
        2     1     1     2   103     0  2.9670044334e+00  6.4094558631e+00 -6.1665591715e+00  9.3818757072e+00  3.3000000000e-01 0. 9.
#pdf   21    2  3.241239e-02  1.540840e-01  7.066730e+00  3.035614e+00  6.137140e-01
</event>
<event>
     4  9999  1.000000e+00  5.734032e+00  7.581258e-03  2.316610e-01
       21    -1     0     0   102   103  0.0000000000e+00  0.0000000000e+00  1.6373610838e+01  1.6373610838e+01  0.0000000000e+00 0. 9.
        4    -1     0     0   101     0  0.0000000000e+00  0.0000000000e+00 -6.6536268891e+00  6.6536268891e+00  0.0000000000e+00 0. 9.
       21     1     1     2   101   103 -2.3739197518e+00  5.1870007079e+00  1.4405826570e+01  1.5494137940e+01  0.0000000000e+00 0. 9.
        4     1     1     2   102     0  2.3739197518e+00 -5.1870007079e+00 -4.6858426213e+00  7.5330997872e+00  1.5000000000e+00 0. 9.
#pdf   21    4  1.637361e-01  6.653627e-02  5.734032e+00  6.787061e-01  3.410192e-02
</event>
<event>
     4  9999  1.000000e+00  1.014389e+01  7.627635e-03  1.994928e-01
       21    -1     0     0   101   102  0.0000000000e+00  0.0000000000e+00  8.2688813678e+00  8.2688813678e+00  0.0000000000e+00 0. 9.
       21    -1     0     0   103   104  0.0000000000e+00  0.0000000000e+00 -1.2471792148e+01  1.2471792148e+01  0.0000000000e+00 0. 9.
       21     1     1     2   101   104  9.6463733574e+00  3.1378338254e+00 -2.5903996859e+00  1.0469416918e+01  0.0000000000e+00 0. 9.
       21     1     1     2   103   102 -9.6463733574e+00 -3.1378338254e+00 -1.6125110939e+00  1.0271256598e+01  0.0000000000e+00 0. 9.
#pdf   21   21  8.268881e-02  1.247179e-01  1.014389e+01  1.350183e+00  8.593825e-01
</event>
<event>
     4  9999  1.000000e+00  6.770164e+00  7.594648e-03  2.212716e-01
       21    -1     0     0   102   101  0.0000000000e+00  0.0000000000e+00  3.8454805987e+00  3.8454805987e+00  0.0000000000e+00 0. 9.
        2    -1     0     0   101     0  0.0000000000e+00  0.0000000000e+00 -3.5849960337e+01  3.5849960337e+01  0.0000000000e+00 0. 9.
       21     1     1     2   102   103 -5.2456846881e+00  4.2778274298e+00  2.1374240083e-01  6.7722006157e+00  0.0000000000e+00 0. 9.
        2     1     1     2   103     0  5.2456846881e+00 -4.2778274298e+00 -3.2218222139e+01  3.2923240320e+01  3.3000000000e-01 0. 9.
#pdf   21    2  3.845481e-02  3.584996e-01  6.770164e+00  2.672539e+00  3.799717e-01
</event>
<event>
     4  9999  1.000000e+00  7.034522e+00  7.597742e-03  2.190066e-01
       21    -1     0     0   102   101  0.0000000000e+00  0.0000000000e+00  1.5404382809e+01  1.5404382809e+01  0.0000000000e+00 0. 9.
       21    -1     0     0   104   103  0.0000000000e+00  0.0000000000e+00 -7.0244811852e+00  7.0244811852e+00  0.0000000000e+00 0. 9.
       21     1     1     2   104   101  3.8407460512e+00  5.8934850673e+00  1.2451342873e+01  1.4301064149e+01  0.0000000000e+00 0. 9.
       21     1     1     2   102   103 -3.8407460512e+00 -5.8934850673e+00 -4.0714412492e+00  8.1277998447e+00  0.0000000000e+00 0. 9.
#pdf   21   21  1.540438e-01  7.024481e-02  7.034522e+00  7.051726e-01  1.617865e+00
</event>
<event>
     4  9999  1.000000e+00  6.371710e+00  7.589753e-03  2.249557e-01
       21    -1     0     0   101   102  0.0000000000e+00  0.0000000000e+00  1.3728181776e+01  1.3728181776e+01  0.0000000000e+00 0. 9.
       21    -1     0     0   102   103  0.0000000000e+00  0.0000000000e+00 -4.7889804561e+00  4.7889804561e+00  0.0000000000e+00 0. 9.
       21     1     1     2   101   104 -6.1318241835e+00  1.7318817506e+00  1.0195515801e+01  1.2022779406e+01  0.0000000000e+00 0. 9.
       21     1     1     2   104   103  6.1318241835e+00 -1.7318817506e+00 -1.2563144804e+00  6.4943828259e+00  0.0000000000e+00 0. 9.
#pdf   21   21  1.372818e-01  4.788980e-02  6.371710e+00  8.176782e-01  2.251884e+00
</event>
<event>
     4  9999  1.000000e+00  5.545035e+00  7.578562e-03  2.338767e-01
       21    -1     0     0   101   102  0.0000000000e+00  0.0000000000e+00  7.9856267718e+00  7.9856267718e+00  0.0000000000e+00 0. 9.
       21    -1     0     0   103   104  0.0000000000e+00  0.0000000000e+00 -3.8581868084e+00  3.8581868084e+00  0.0000000000e+00 0. 9.
       21     1     1     2   101   104 -3.5112392387e+00 -4.2916905800e+00  1.7967210264e+00  5.8288605638e+00  0.0000000000e+00 0. 9.
       21     1     1     2   103   102  3.5112392387e+00  4.2916905800e+00  2.3307189370e+00  6.0149530164e+00  0.0000000000e+00 0. 9.
#pdf   21   21  7.985627e-02  3.858187e-02  5.545035e+00  1.452947e+00  2.643589e+00
</event>
<event>
     4  9999  1.000000e+00  6.801799e+00  7.595024e-03  2.209934e-01
       -1    -1     0     0     0   101  0.0000000000e+00  0.0000000000e+00  1.4289267331e+01  1.4289267331e+01  0.0000000000e+00 0. 9.
       21    -1     0     0   103   102  0.0000000000e+00  0.0000000000e+00 -3.8339382627e+00  3.8339382627e+00  0.0000000000e+00 0. 9.
       -1     1     1     2     0   102 -2.6678553752e+00  6.2530824897e+00  8.8019534742e+00  1.1126624730e+01  3.3000000000e-01 0. 9.
       21     1     1     2   103   101  2.6678553752e+00 -6.2530824897e+00  1.6533755944e+00  6.9965808637e+00  0.0000000000e+00 0. 9.
#pdf   -1   21  1.428927e-01  3.833938e-02  6.801799e+00  7.185769e-02  2.678962e+00
</event>
<event>
     4  9999  1.000000e+00  1.083012e+01  7.633161e-03  1.963639e-01
       21    -1     0     0   102   103  0.0000000000e+00  0.0000000000e+00  1.9800444810e+01  1.9800444810e+01  0.0000000000e+00 0. 9.
        1    -1     0     0   101     0  0.0000000000e+00  0.0000000000e+00 -1.6188077380e+01  1.6188077380e+01  0.0000000000e+00 0. 9.
       21     1     1     2   101   103  1.0829192613e+01  1.2488841873e-02  1.6133392101e+01  1.9430849424e+01  0.0000000000e+00 0. 9.
        1     1     1     2   102     0 -1.0829192613e+01 -1.2488841873e-02 -1.2521024672e+01  1.6557672767e+01  3.3000000000e-01 0. 9.
#pdf   21    1  1.980044e-01  1.618808e-01  1.083012e+01  4.721938e-01  3.287809e-01
</event>
<event>
     4  9999  1.000000e+00  5.768212e+00  7.581737e-03  2.312725e-01
       21    -1     0     0   101   102  0.0000000000e+00  0.0000000000e+00  2.8288312155e+01  2.8288312155e+01  0.0000000000e+00 0. 9.
       21    -1     0     0   103   104  0.0000000000e+00  0.0000000000e+00 -1.1926626817e+00  1.1926626817e+00  0.0000000000e+00 0. 9.
       21     1     1     2   101   104  5.2665815249e+00  2.3527419074e+00  1.1815189526e+01  1.3148040880e+01  0.0000000000e+00 0. 9.
       21     1     1     2   103   102 -5.2665815249e+00 -2.3527419074e+00  1.5280459947e+01  1.6332933957e+01  0.0000000000e+00 0. 9.
#pdf   21   21  2.828831e-01  1.192663e-02  5.768212e+00  3.378161e-01  5.528016e+00
</event>
<event>
     4  9999  1.000000e+00  5.456782e+00  7.577272e-03  2.349524e-01
       21    -1     0     0   102   101  0.0000000000e+00  0.0000000000e+00  1.2046432676e+01  1.2046432676e+01  0.0000000000e+00 0. 9.
       21    -1     0     0   101   103  0.0000000000e+00  0.0000000000e+00 -1.3679204242e+01  1.3679204242e+01  0.0000000000e+00 0. 9.
       21     1     1     2   104   103 -1.7133649242e+00  5.1808158282e+00 -1.2459203050e+01  1.3601772408e+01  0.0000000000e+00 0. 9.
       21     1     1     2   102   104  1.7133649242e+00 -5.1808158282e+00  1.0826431483e+01  1.2123864511e+01  0.0000000000e+00 0. 9.
#pdf   21   21  1.204643e-01  1.367920e-01  5.456782e+00  9.632660e-01  8.382499e-01
</event>
<event>
     4  9999  1.000000e+00  8.730201e+00  7.615235e-03  2.070572e-01
        1    -1     0     0   101     0  0.0000000000e+00  0.0000000000e+00  6.9892381694e+00  6.9892381694e+00  0.0000000000e+00 0. 9.
       21    -1     0     0   102   103  0.0000000000e+00  0.0000000000e+00 -1.2926827899e+01  1.2926827899e+01  0.0000000000e+00 0. 9.
        1     1     1     2   102     0  8.6518573830e+00  1.1471025251e+00  9.6751324172e-01  8.7872329122e+00  3.3000000000e-01 0. 9.
       21     1     1     2   101   103 -8.6518573830e+00 -1.1471025251e+00 -6.9051029718e+00  1.1128833157e+01  0.0000000000e+00 0. 9.
#pdf    1   21  6.989238e-02  1.292683e-01  8.730201e+00  4.136067e-01  8.401453e-01
</event>
<event>
     4  9999  1.000000e+00  8.725736e+00  7.615194e-03  2.070840e-01
       21    -1     0     0   102   101  0.0000000000e+00  0.0000000000e+00  4.7182923300e+00  4.7182923300e+00  0.0000000000e+00 0. 9.
       21    -1     0     0   104   103  0.0000000000e+00  0.0000000000e+00 -1.8578085821e+01  1.8578085821e+01  0.0000000000e+00 0. 9.
       21     1     1     2   104   101  8.0375226329e+00 -3.3965726249e+00 -2.7074818076e+00  9.1361333949e+00  0.0000000000e+00 0. 9.
       21     1     1     2   102   103 -8.0375226329e+00  3.3965726249e+00 -1.1152311683e+01  1.4160244756e+01  0.0000000000e+00 0. 9.
#pdf   21   21  4.718292e-02  1.857809e-01  8.725736e+00  2.280867e+00  5.380178e-01
</event>
<event>
     4  9999  1.000000e+00  6.455199e+00  7.590803e-03  2.241547e-01
       21    -1     0     0   102   101  0.0000000000e+00  0.0000000000e+00  1.6538636639e+01  1.6538636639e+01  0.0000000000e+00 0. 9.
       21    -1     0     0   101   103  0.0000000000e+00  0.0000000000e+00 -1.6942534147e+01  1.6942534147e+01  0.0000000000e+00 0. 9.
       21     1     1     2   104   103  2.2734979926e+00 -6.0415890240e+00 -1.5647710093e+01  1.6926914137e+01  0.0000000000e+00 0. 9.
       21     1     1     2   102   104 -2.2734979926e+00  6.0415890240e+00  1.5243812585e+01  1.6554256648e+01  0.0000000000e+00 0. 9.
#pdf   21   21  1.653864e-01  1.694253e-01  6.455199e+00  6.574239e-01  6.388356e-01
</event>
<event>
     4  9999  1.000000e+00  5.715987e+00  7.581005e-03  2.318676e-01
       21    -1     0     0   101   102  0.0000000000e+00  0.0000000000e+00  3.3661303370e+00  3.3661303370e+00  0.0000000000e+00 0. 9.
       21    -1     0     0   103   101  0.0000000000e+00  0.0000000000e+00 -9.7307989486e+00  9.7307989486e+00  0.0000000000e+00 0. 9.
       21     1     1     2   103   104  2.2591919345e+00 -5.2505773296e+00 -3.5112320593e+00  6.7082979261e+00  0.0000000000e+00 0. 9.
       21     1     1     2   104   102 -2.2591919345e+00  5.2505773296e+00 -2.8534365522e+00  6.3886313596e+00  0.0000000000e+00 0. 9.
#pdf   21   21  3.366130e-02  9.730799e-02  5.715987e+00  2.918262e+00  1.197439e+00
</event>
<event>
     4  9999  1.000000e+00  5.056524e+00  7.571154e-03  2.401983e-01
       21    -1     0     0   102   101  0.0000000000e+00  0.0000000000e+00  5.2138640303e+00  5.2138640303e+00  0.0000000000e+00 0. 9.
       21    -1     0     0   103   102  0.0000000000e+00  0.0000000000e+00 -1.0295624845e+01  1.0295624845e+01  0.0000000000e+00 0. 9.
       21     1     1     2   104   101 -4.7560110773e+00 -1.7172058683e+00  3.0709389929e+00  5.9160040280e+00  0.0000000000e+00 0. 9.
       21     1     1     2   103   104  4.7560110773e+00  1.7172058683e+00 -8.1526998072e+00  9.5934848469e+00  0.0000000000e+00 0. 9.
#pdf   21   21  5.213864e-02  1.029562e-01  5.056524e+00  2.096989e+00  1.142138e+00
</event>
<event>
     4  9999  1.000000e+00  5.596640e+00  7.579307e-03  2.332601e-01
        2    -1     0     0   101     0  0.0000000000e+00  0.0000000000e+00  3.7124143488e+01  3.7124143488e+01  0.0000000000e+00 0. 9.
       21    -1     0     0   102   103  0.0000000000e+00  0.0000000000e+00 -8.6937466005e-01  8.6937466005e-01  0.0000000000e+00 0. 9.
        2     1     1     2   102     0 -3.3705673049e+00 -4.4619312111e+00  1.4882099508e+01  1.5901425718e+01  3.3000000000e-01 0. 9.
       21     1     1     2   101   103  3.3705673049e+00  4.4619312111e+00  2.1372669320e+01  2.2092092430e+01  0.0000000000e+00 0. 9.
#pdf    2   21  3.712414e-01  8.693747e-03  5.596640e+00  3.761651e-01  6.495299e+00
</event>
<event>
     4  9999  1.000000e+00  6.792570e+00  7.594915e-03  2.210744e-01
       21    -1     0     0   102   101  0.0000000000e+00  0.0000000000e+00  2.2970430551e+01  2.2970430551e+01  0.0000000000e+00 0. 9.
        2    -1     0     0   101     0  0.0000000000e+00  0.0000000000e+00 -2.8269845153e+00  2.8269845153e+00  0.0000000000e+00 0. 9.
       21     1     1     2   102   103 -5.5739553549e+00 -3.8770275799e+00  1.7004540511e+01  1.8309962292e+01  0.0000000000e+00 0. 9.
        2     1     1     2   103     0  5.5739553549e+00  3.8770275799e+00  3.1389055252e+00  7.4874527745e+00  3.3000000000e-01 0. 9.
#pdf   21    2  2.297043e-01  2.826985e-02  6.792570e+00  4.300020e-01  5.696746e-01
</event>
<event>
     4  9999  1.000000e+00  5.853956e+00  7.582924e-03  2.303134e-01
       21    -1     0     0   102   103  0.0000000000e+00  0.0000000000e+00  2.0767626546e+00  2.0767626546e+00  0.0000000000e+00 0. 9.
        2    -1     0     0   101     0  0.0000000000e+00  0.0000000000e+00 -5.6921814862e+01  5.6921814862e+01  0.0000000000e+00 0. 9.
       21     1     1     2   101   103 -2.8482233422e+00  5.1127918785e+00 -2.5634682701e+00  6.3893964169e+00  0.0000000000e+00 0. 9.
        2     1     1     2   102     0  2.8482233422e+00 -5.1127918785e+00 -5.2281583937e+01  5.2609181099e+01  3.3000000000e-01 0. 9.
#pdf   21    2  2.076763e-02  5.692181e-01  5.853956e+00  4.016089e+00  1.312085e-01
</event>
<event>
     4  9999  1.000000e+00  8.439552e+00  7.612487e-03  2.088438e-01
       21    -1     0     0   101   102  0.0000000000e+00  0.0000000000e+00  5.0309142314e+00  5.0309142314e+00  0.0000000000e+00 0. 9.
       21    -1     0     0   103   101  0.0000000000e+00  0.0000000000e+00 -1.5260803441e+01  1.5260803441e+01  0.0000000000e+00 0. 9.
        4     1     1     2   103     0 -7.9151984282e-01  8.2673773289e+00 -7.8427527719e+00  1.1521059092e+01  1.5000000000e+00 0. 9.
       -4     1     1     2     0   102  7.9151984282e-01 -8.2673773289e+00 -2.3871364377e+00  8.7706585803e+00  1.5000000000e+00 0. 9.
#pdf   21   21  5.030914e-02  1.526080e-01  8.439552e+00  2.161967e+00  6.929056e-01
</event>
<event>
     4  9999  1.000000e+00  5.233024e+00  7.573908e-03  2.378070e-01
        2    -1     0     0   101     0  0.0000000000e+00  0.0000000000e+00  2.4053503672e+01  2.4053503672e+01  0.0000000000e+00 0. 9.
       21    -1     0     0   102   103  0.0000000000e+00  0.0000000000e+00 -3.2295379457e+00  3.2295379457e+00  0.0000000000e+00 0. 9.
        2     1     1     2   102     0  5.0007498695e+00  1.5355290707e+00  2.1388570078e+01  2.2021470858e+01  3.3000000000e-01 0. 9.
       21     1     1     2   101   103 -5.0007498695e+00 -1.5355290707e+00 -5.6460435147e-01  5.2615707595e+00  0.0000000000e+00 0. 9.
#pdf    2   21  2.405350e-01  3.229538e-02  5.233024e+00  5.555508e-01  2.982543e+00
</event>
<event>
     4  9999  1.000000e+00  8.109591e+00  7.609253e-03  2.109881e-01
       21    -1     0     0   102   103  0.0000000000e+00  0.0000000000e+00  4.8761359583e+00  4.8761359583e+00  0.0000000000e+00 0. 9.
        2    -1     0     0   101     0  0.0000000000e+00  0.0000000000e+00 -1.5021585724e+01  1.5021585724e+01  0.0000000000e+00 0. 9.
       21     1     1     2   101   103 -1.6202289620e+00  7.9430123311e+00 -1.8923557636e+00  8.3245178309e+00  0.0000000000e+00 0. 9.
        2     1     1     2   102     0  1.6202289620e+00 -7.9430123311e+00 -8.2530940026e+00  1.1573203852e+01  3.3000000000e-01 0. 9.
#pdf   21    2  4.876136e-02  1.502159e-01  8.109591e+00  2.220348e+00  6.110348e-01
</event>
<event>
     4  9999  1.000000e+00  5.304362e+00  7.574996e-03  2.368763e-01
       21    -1     0     0   101   102  0.0000000000e+00  0.0000000000e+00  1.4934406529e+00  1.4934406529e+00  0.0000000000e+00 0. 9.
       21    -1     0     0   103   104  0.0000000000e+00  0.0000000000e+00 -2.0852197852e+01  2.0852197852e+01  0.0000000000e+00 0. 9.
       21     1     1     2   101   104  2.7227477173e+00  4.5522414724e+00 -6.2085427845e+00  8.1659207113e+00  0.0000000000e+00 0. 9.
       21     1     1     2   103   102 -2.7227477173e+00 -4.5522414724e+00 -1.3150214414e+01  1.4179717793e+01  0.0000000000e+00 0. 9.
#pdf   21   21  1.493441e-02  2.085220e-01  5.304362e+00  4.802643e+00  5.166460e-01
</event>
<event>
     4  9999  1.000000e+00  5.651067e+00  7.580086e-03  2.326193e-01
       21    -1     0     0   102   103  0.0000000000e+00  0.0000000000e+00  4.1177732410e+00  4.1177732410e+00  0.0000000000e+00 0. 9.
        2    -1     0     0   101     0  0.0000000000e+00  0.0000000000e+00 -1.5100652655e+01  1.5100652655e+01  0.0000000000e+00 0. 9.
       21     1     1     2   101   103  1.8781836576e+00  5.3271973441e+00 -1.2187975839e+01  1.3433292986e+01  0.0000000000e+00 0. 9.
        2     1     1     2   102     0 -1.8781836576e+00 -5.3271973441e+00  1.2050964249e+00  5.7851329101e+00  3.3000000000e-01 0. 9.
#pdf   21    2  4.117773e-02  1.510065e-01  5.651067e+00  2.521994e+00  6.230245e-01
</event>
<event>
     4  9999  1.000000e+00  6.392866e+00  7.590020e-03  2.247512e-01
       21    -1     0     0   102   103  0.0000000000e+00  0.0000000000e+00  3.2140778779e+01  3.2140778779e+01  0.0000000000e+00 0. 9.
        1    -1     0     0   101     0  0.0000000000e+00  0.0000000000e+00 -2.3622580931e+01  2.3622580931e+01  0.0000000000e+00 0. 9.
       21     1     1     2   101   103  3.2679802814e+00  5.4941889170e+00  3.1378867857e+01  3.2023415729e+01  0.0000000000e+00 0. 9.
        1     1     1     2   102     0 -3.2679802814e+00 -5.4941889170e+00 -2.2860670009e+01  2.3739943981e+01  3.3000000000e-01 0. 9.
#pdf   21    1  3.214078e-01  2.362258e-01  6.392866e+00  2.610199e-01  2.675183e-01
</event>
<event>
     4  9999  1.000000e+00  5.533297e+00  7.578392e-03  2.340182e-01
       21    -1     0     0   101   102  0.0000000000e+00  0.0000000000e+00  2.3624493283e+00  2.3624493283e+00  0.0000000000e+00 0. 9.
       21    -1     0     0   102   103  0.0000000000e+00  0.0000000000e+00 -2.2190153582e+01  2.2190153582e+01  0.0000000000e+00 0. 9.
       21     1     1     2   101   104  1.7447484182e+00 -5.2510219200e+00 -1.9962895240e+00  5.8823932299e+00  0.0000000000e+00 0. 9.
       21     1     1     2   104   103 -1.7447484182e+00  5.2510219200e+00 -1.7831414730e+01  1.8670209680e+01  0.0000000000e+00 0. 9.
#pdf   21   21  2.362449e-02  2.219015e-01  5.533297e+00  3.681270e+00  4.737611e-01
</event>
<event>
     4  9999  1.000000e+00  7.006716e+00  7.597422e-03  2.192387e-01
       21    -1     0     0   103   102  0.0000000000e+00  0.0000000000e+00  9.9581533483e+00  9.9581533483e+00  0.0000000000e+00 0. 9.
       -2    -1     0     0     0   101  0.0000000000e+00  0.0000000000e+00 -1.5499850677e+01  1.5499850677e+01  0.0000000000e+00 0. 9.
       21     1     1     2   103   101  6.0837694285e+00 -3.4733982801e+00  7.7392756269e+00  1.0439019748e+01  0.0000000000e+00 0. 9.
       -2     1     1     2     0   102 -6.0837694285e+00  3.4733982801e+00 -1.3280972956e+01  1.5018984277e+01  3.3000000000e-01 0. 9.
#pdf   21   -2  9.958153e-02  1.549985e-01  7.006716e+00  1.149105e+00  4.275386e-02
</event>
<event>
     4  9999  1.000000e+00  7.393449e+00  7.601766e-03  2.161324e-01
       21    -1     0     0   101   102  0.0000000000e+00  0.0000000000e+00  2.4761840456e+00  2.4761840456e+00  0.0000000000e+00 0. 9.
       -2    -1     0     0     0   101  0.0000000000e+00  0.0000000000e+00 -3.4734548461e+01  3.4734548461e+01  0.0000000000e+00 0. 9.
       21     1     1     2   103   102  7.3878259439e+00  2.2025082093e-01 -4.8956252488e+00  8.8654175975e+00  0.0000000000e+00 0. 9.
       -2     1     1     2     0   103 -7.3878259439e+00 -2.2025082093e-01 -2.7362739166e+01  2.8345314909e+01  3.3000000000e-01 0. 9.
#pdf   21   -2  2.476184e-02  3.473455e-01  7.393449e+00  3.672565e+00  9.002720e-03
</event>
<event>
     4  9999  1.000000e+00  5.734804e+00  7.581269e-03  2.316522e-01
        2    -1     0     0   101     0  0.0000000000e+00  0.0000000000e+00  1.0014037093e+01  1.0014037093e+01  0.0000000000e+00 0. 9.
       21    -1     0     0   102   103  0.0000000000e+00  0.0000000000e+00 -3.4838591982e+00  3.4838591982e+00  0.0000000000e+00 0. 9.
        2     1     1     2   102     0 -5.0079399589e-01  5.7084033339e+00  4.8820896209e+00  7.5352745348e+00  3.3000000000e-01 0. 9.
       21     1     1     2   101   103  5.0079399589e-01 -5.7084033339e+00  1.6480882737e+00  5.9626217561e+00  0.0000000000e+00 0. 9.
#pdf    2   21  1.001404e-01  3.483859e-02  5.734804e+00  6.268329e-01  2.849064e+00
</event>
<event>
     4  9999  1.000000e+00  5.960178e+00  7.584372e-03  2.291554e-01
       21    -1     0     0   102   101  0.0000000000e+00  0.0000000000e+00  3.8141639926e+00  3.8141639926e+00  0.0000000000e+00 0. 9.
       21    -1     0     0   104   103  0.0000000000e+00  0.0000000000e+00 -1.5850537257e+01  1.5850537257e+01  0.0000000000e+00 0. 9.
       21     1     1     2   104   101  3.4555135767e+00  4.8562480824e+00  2.9605883946e-01  5.9675263177e+00  0.0000000000e+00 0. 9.
       21     1     1     2   102   103 -3.4555135767e+00 -4.8562480824e+00 -1.2332432104e+01  1.3697174932e+01  0.0000000000e+00 0. 9.
#pdf   21   21  3.814164e-02  1.585054e-01  5.960178e+00  2.674550e+00  7.002472e-01
</event>
<event>
     4  9999  1.000000e+00  5.570171e+00  7.578926e-03  2.335753e-01
       21    -1     0     0   101   102  0.0000000000e+00  0.0000000000e+00  4.7067132110e+00  4.7067132110e+00  0.0000000000e+00 0. 9.
       21    -1     0     0   103   104  0.0000000000e+00  0.0000000000e+00 -6.6144890084e+00  6.6144890084e+00  0.0000000000e+00 0. 9.
       21     1     1     2   101   104  3.1115156409e+00  4.6200942632e+00 -1.2837235378e+00  5.7161828790e+00  0.0000000000e+00 0. 9.
       21     1     1     2   103   102 -3.1115156409e+00 -4.6200942632e+00 -6.2405225964e-01  5.6050193405e+00  0.0000000000e+00 0. 9.
#pdf   21   21  4.706713e-02  6.614489e-02  5.570171e+00  2.277654e+00  1.721772e+00
</event>
<event>
     4  9999  1.000000e+00  8.334730e+00  7.611473e-03  2.095111e-01
       21    -1     0     0   102   103  0.0000000000e+00  0.0000000000e+00  9.3902282207e+00  9.3902282207e+00  0.0000000000e+00 0. 9.
        2    -1     0     0   101     0  0.0000000000e+00  0.0000000000e+00 -2.8774467059e+01  2.8774467059e+01  0.0000000000e+00 0. 9.
       21     1     1     2   101   103  3.0370956353e+00  7.7607840070e+00  6.7546059373e+00  1.0727461008e+01  0.0000000000e+00 0. 9.
        2     1     1     2   102     0 -3.0370956353e+00 -7.7607840070e+00 -2.6138844775e+01  2.7437234272e+01  3.3000000000e-01 0. 9.
#pdf   21    2  9.390228e-02  2.877447e-01  8.334730e+00  1.202987e+00  4.647143e-01
</event>
<event>
     4  9999  1.000000e+00  5.672898e+00  7.580396e-03  2.323650e-01
       21    -1     0     0   102   101  0.0000000000e+00  0.0000000000e+00  9.7377427391e+00  9.7377427391e+00  0.0000000000e+00 0. 9.
       21    -1     0     0   103   102  0.0000000000e+00  0.0000000000e+00 -3.6267973284e+00  3.6267973284e+00  0.0000000000e+00 0. 9.
       21     1     1     2   104   101  1.8459477560e+00  5.3641635804e+00  1.0645466002e+00  5.7719176622e+00  0.0000000000e+00 0. 9.
       21     1     1     2   103   104 -1.8459477560e+00 -5.3641635804e+00  5.0463988105e+00  7.5926224053e+00  0.0000000000e+00 0. 9.
#pdf   21   21  9.737743e-02  3.626797e-02  5.672898e+00  1.197329e+00  2.767069e+00
</event>
<event>
     4  9999  1.000000e+00  5.317140e+00  7.575189e-03  2.367117e-01
       21    -1     0     0   101   102  0.0000000000e+00  0.0000000000e+00  5.7761666324e+00  5.7761666324e+00  0.0000000000e+00 0. 9.
       21    -1     0     0   103   101  0.0000000000e+00  0.0000000000e+00 -5.5183040674e+00  5.5183040674e+00  0.0000000000e+00 0. 9.
       21     1     1     2   103   104 -3.1544577329e+00  4.2803479182e+00 -1.7696315408e+00  5.6038895135e+00  0.0000000000e+00 0. 9.
       21     1     1     2   104   102  3.1544577329e+00 -4.2803479182e+00  2.0274941058e+00  5.6905811864e+00  0.0000000000e+00 0. 9.
#pdf   21   21  5.776167e-02  5.518304e-02  5.317140e+00  1.932563e+00  2.006131e+00
</event>
<event>
     4  9999  1.000000e+00  5.235697e+00  7.573949e-03  2.377717e-01
        2    -1     0     0   101     0  0.0000000000e+00  0.0000000000e+00  1.1758136519e+01  1.1758136519e+01  0.0000000000e+00 0. 9.
        2    -1     0     0   102     0  0.0000000000e+00  0.0000000000e+00 -6.7012709554e+00  6.7012709554e+00  0.0000000000e+00 0. 9.
        2     1     1     2   102     0  4.2099508454e+00  3.1065987450e+00  9.9765209682e+00  1.1270071540e+01  3.3000000000e-01 0. 9.
        2     1     1     2   101     0 -4.2099508454e+00 -3.1065987450e+00 -4.9196554044e+00  7.1893359347e+00  3.3000000000e-01 0. 9.
#pdf    2    2  1.175814e-01  6.701271e-02  5.235697e+00  6.310035e-01  6.066151e-01
</event>
<event>
     4  9999  1.000000e+00  6.758314e+00  7.594506e-03  2.213763e-01
       21    -1     0     0   102   103  0.0000000000e+00  0.0000000000e+00  4.3971208069e+00  4.3971208069e+00  0.0000000000e+00 0. 9.
        1    -1     0     0   101     0  0.0000000000e+00  0.0000000000e+00 -1.0861216612e+01  1.0861216612e+01  0.0000000000e+00 0. 9.
       21     1     1     2   101   103  6.0108467144e+00 -3.0809862517e+00 -1.6377084802e+00  6.9501686003e+00  0.0000000000e+00 0. 9.
        1     1     1     2   102     0 -6.0108467144e+00  3.0809862517e+00 -4.8263873250e+00  8.3081688186e+00  3.3000000000e-01 0. 9.
#pdf   21    1  4.397121e-02  1.086122e-01  6.758314e+00  2.411191e+00  3.887944e-01
</event>
<event>
     4  9999  1.000000e+00  5.114274e+00  7.572065e-03  2.394015e-01
       21    -1     0     0   101   102  0.0000000000e+00  0.0000000000e+00  1.0503655202e+01  1.0503655202e+01  0.0000000000e+00 0. 9.
       21    -1     0     0   103   104  0.0000000000e+00  0.0000000000e+00 -2.8493137848e+00  2.8493137848e+00  0.0000000000e+00 0. 9.
       21     1     1     2   101   104 -4.1825942959e+00  2.9430769565e+00  6.1975457555e+00  8.0352579553e+00  0.0000000000e+00 0. 9.
       21     1     1     2   103   102  4.1825942959e+00 -2.9430769565e+00  1.4567956620e+00  5.3177110318e+00  0.0000000000e+00 0. 9.
#pdf   21   21  1.050366e-01  2.849314e-02  5.114274e+00  1.118182e+00  3.234145e+00
</event>
<event>
     4  9999  1.000000e+00  8.737146e+00  7.615300e-03  2.070157e-01
        2    -1     0     0   101     0  0.0000000000e+00  0.0000000000e+00  1.9038090235e+01  1.9038090235e+01  0.0000000000e+00 0. 9.
       21    -1     0     0   102   103  0.0000000000e+00  0.0000000000e+00 -4.4368057649e+00  4.4368057649e+00  0.0000000000e+00 0. 9.
        2     1     1     2   102     0  2.4291480409e+00 -8.3897417646e+00  1.0943382344e+01  1.4005536199e+01  3.3000000000e-01 0. 9.
       21     1     1     2   101   103 -2.4291480409e+00  8.3897417646e+00  3.6579021259e+00  9.4693598011e+00  0.0000000000e+00 0. 9.
#pdf    2   21  1.903809e-01  4.436806e-02  8.737146e+00  5.777351e-01  2.399537e+00
</event>
<event>
     4  9999  1.000000e+00  6.048782e+00  7.585561e-03  2.282137e-01
        3    -1     0     0   101     0  0.0000000000e+00  0.0000000000e+00  3.2938570483e+00  3.2938570483e+00  0.0000000000e+00 0. 9.
       21    -1     0     0   102   101  0.0000000000e+00  0.0000000000e+00 -4.8839875781e+01  4.8839875781e+01  0.0000000000e+00 0. 9.
        3     1     1     2   103     0  4.1855223502e-01 -6.0319280761e+00  1.2089585966e-01  6.0682747217e+00  5.0000000000e-01 0. 9.
       21     1     1     2   102   103 -4.1855223502e-01  6.0319280761e+00 -4.5666914592e+01  4.6065458108e+01  0.0000000000e+00 0. 9.
#pdf    3   21  3.293857e-02  4.883988e-01  6.048782e+00  9.218550e-02  6.819290e-02
</event>
<event>
     4  9999  1.000000e+00  5.234884e+00  7.573937e-03  2.377824e-01
       21    -1     0     0   102   101  0.0000000000e+00  0.0000000000e+00  3.3924311818e+01  3.3924311818e+01  0.0000000000e+00 0. 9.
        2    -1     0     0   101     0  0.0000000000e+00  0.0000000000e+00 -8.7963919804e-01  8.7963919804e-01  0.0000000000e+00 0. 9.
       21     1     1     2   102   103 -5.1953144357e+00  6.0228138225e-01  2.1475867961e+01  2.2103550385e+01  0.0000000000e+00 0. 9.
        2     1     1     2   103     0  5.1953144357e+00 -6.0228138225e-01  1.1568804659e+01  1.2700400631e+01  3.3000000000e-01 0. 9.
#pdf   21    2  3.392431e-01  8.796392e-03  5.234884e+00  2.577238e-01  5.586451e-01
</event>
<event>
     4  9999  1.000000e+00  5.525232e+00  7.578275e-03  2.341158e-01
        2    -1     0     0   101     0  0.0000000000e+00  0.0000000000e+00  1.0197796967e+00  1.0197796967e+00  0.0000000000e+00 0. 9.
       21    -1     0     0   102   103  0.0000000000e+00  0.0000000000e+00 -2.9972896853e+01  2.9972896853e+01  0.0000000000e+00 0. 9.
        2     1     1     2   102     0 -1.9274400291e+00  5.1728916638e+00 -1.3946721685e+01  1.5003125641e+01  3.3000000000e-01 0. 9.
       21     1     1     2   101   103  1.9274400291e+00 -5.1728916638e+00 -1.5006395471e+01  1.5989550909e+01  0.0000000000e+00 0. 9.
#pdf    2   21  1.019780e-02  2.997290e-01  5.525232e+00  5.581970e-01  3.136631e-01
</event>
<event>
     4  9999  1.000000e+00  5.265343e+00  7.574403e-03  2.373829e-01
        2    -1     0     0   101     0  0.0000000000e+00  0.0000000000e+00  4.0990174230e+01  4.0990174230e+01  0.0000000000e+00 0. 9.
       21    -1     0     0   102   101  0.0000000000e+00  0.0000000000e+00 -1.7599609308e+00  1.7599609308e+00  0.0000000000e+00 0. 9.
        2     1     1     2   103     0 -2.6764512010e+00 -4.5320546650e+00  3.6388457365e+01  3.6768623035e+01  3.3000000000e-01 0. 9.
       21     1     1     2   102   103  2.6764512010e+00  4.5320546650e+00  2.8417559346e+00  5.9815121257e+00  0.0000000000e+00 0. 9.
#pdf    2   21  4.099017e-01  1.759961e-02  5.265343e+00  3.263034e-01  4.366702e+00
</event>
<event>
     4  9999  1.000000e+00  5.620317e+00  7.579647e-03  2.329802e-01
       21    -1     0     0   102   103  0.0000000000e+00  0.0000000000e+00  2.5489638195e+00  2.5489638195e+00  0.0000000000e+00 0. 9.
        2    -1     0     0   101     0  0.0000000000e+00  0.0000000000e+00 -1.6881128475e+01  1.6881128475e+01  0.0000000000e+00 0. 9.
       21     1     1     2   101   103 -4.5115174549e+00 -3.3457750605e+00 -2.1551257149e+00  6.0160258766e+00  0.0000000000e+00 0. 9.
        2     1     1     2   102     0  4.5115174549e+00  3.3457750605e+00 -1.2177038940e+01  1.3414066418e+01  3.3000000000e-01 0. 9.
#pdf   21    2  2.548964e-02  1.688113e-01  5.620317e+00  3.512896e+00  6.143466e-01
</event>
<event>
     4  9999  1.000000e+00  5.473289e+00  7.577515e-03  2.347492e-01
        2    -1     0     0   101     0  0.0000000000e+00  0.0000000000e+00  4.1237107099e+01  4.1237107099e+01  0.0000000000e+00 0. 9.
       21    -1     0     0   102   103  0.0000000000e+00  0.0000000000e+00 -1.2387330777e+00  1.2387330777e+00  0.0000000000e+00 0. 9.
        2     1     1     2   102     0 -1.1384496906e+00 -5.3505980323e+00  3.3660221396e+01  3.4103436358e+01  3.3000000000e-01 0. 9.
       21     1     1     2   101   103  1.1384496906e+00  5.3505980323e+00  6.3381526259e+00  8.3724038191e+00  0.0000000000e+00 0. 9.
#pdf    2   21  4.123711e-01  1.238733e-02  5.473289e+00  3.198748e-01  5.360117e+00
</event>
<event>
     4  9999  1.000000e+00  1.213383e+01  7.642776e-03  1.911578e-01
       21    -1     0     0   102   101  0.0000000000e+00  0.0000000000e+00  1.1752960449e+01  1.1752960449e+01  0.0000000000e+00 0. 9.
       21    -1     0     0   103   102  0.0000000000e+00  0.0000000000e+00 -1.3591085635e+01  1.3591085635e+01  0.0000000000e+00 0. 9.
       21     1     1     2   104   101  9.4320731666e+00 -7.6332100226e+00  2.6265997745e+00  1.2414867130e+01  0.0000000000e+00 0. 9.
       21     1     1     2   103   104 -9.4320731666e+00  7.6332100226e+00 -4.4647249603e+00  1.2929178955e+01  0.0000000000e+00 0. 9.
#pdf   21   21  1.175296e-01  1.359109e-01  1.213383e+01  9.015239e-01  7.565915e-01
</event>
<event>
     4  9999  1.000000e+00  5.295303e+00  7.574859e-03  2.369934e-01
       21    -1     0     0   102   101  0.0000000000e+00  0.0000000000e+00  2.2438991530e+00  2.2438991530e+00  0.0000000000e+00 0. 9.
        2    -1     0     0   101     0  0.0000000000e+00  0.0000000000e+00 -2.7572571827e+01  2.7572571827e+01  0.0000000000e+00 0. 9.
       21     1     1     2   102   103 -5.2597016789e+00  5.9254125002e-01 -1.6396994570e+00  5.5411353704e+00  0.0000000000e+00 0. 9.
        2     1     1     2   103     0  5.2597016789e+00 -5.9254125002e-01 -2.3688973217e+01  2.4275335610e+01  3.3000000000e-01 0. 9.
#pdf   21    2  2.243899e-02  2.757257e-01  5.295303e+00  3.779663e+00  5.125268e-01
</event>
<event>
     4  9999  1.000000e+00  5.193077e+00  7.573293e-03  2.383369e-01
       21    -1     0     0   102   103  0.0000000000e+00  0.0000000000e+00  1.8455711752e+00  1.8455711752e+00  0.0000000000e+00 0. 9.
        2    -1     0     0   101     0  0.0000000000e+00  0.0000000000e+00 -5.9906039992e+01  5.9906039992e+01  0.0000000000e+00 0. 9.
       21     1     1     2   101   103 -3.2991391407e+00 -4.0087967180e+00 -2.1823078576e+00  5.6318059076e+00  0.0000000000e+00 0. 9.
        2     1     1     2   102     0  3.2991391407e+00  4.0087967180e+00 -5.5878160959e+01  5.6119805259e+01  3.3000000000e-01 0. 9.
#pdf   21    2  1.845571e-02  5.990604e-01  5.193077e+00  4.237091e+00  1.101810e-01
</event>
<event>
     4  9999  1.000000e+00  7.689489e+00  7.604943e-03  2.139175e-01
       21    -1     0     0   101   102  0.0000000000e+00  0.0000000000e+00  5.6237505122e+00  5.6237505122e+00  0.0000000000e+00 0. 9.
       21    -1     0     0   103   104  0.0000000000e+00  0.0000000000e+00 -2.0074716159e+01  2.0074716159e+01  0.0000000000e+00 0. 9.
       21     1     1     2   101   104 -7.2843252967e+00  2.4630973879e+00  1.6419354180e+00  7.8628363640e+00  0.0000000000e+00 0. 9.
       21     1     1     2   103   102  7.2843252967e+00 -2.4630973879e+00 -1.6092901065e+01  1.7835630307e+01  0.0000000000e+00 0. 9.
#pdf   21   21  5.623751e-02  2.007472e-01  7.689489e+00  1.968394e+00  4.990018e-01
</event>
<event>
     4  9999  1.000000e+00  5.983868e+00  7.584692e-03  2.289015e-01
        2    -1     0     0   101     0  0.0000000000e+00  0.0000000000e+00  2.6464288732e+01  2.6464288732e+01  0.0000000000e+00 0. 9.
       21    -1     0     0   102   103  0.0000000000e+00  0.0000000000e+00 -2.9768762891e+00  2.9768762891e+00  0.0000000000e+00 0. 9.
        2     1     1     2   102     0 -5.9427753511e+00 -6.8217212388e-01  2.2616235410e+01  2.3396259141e+01  3.3000000000e-01 0. 9.
       21     1     1     2   101   103  5.9427753511e+00  6.8217212388e-01  8.7117703354e-01  6.0449058805e+00  0.0000000000e+00 0. 9.
#pdf    2   21  2.646429e-01  2.976876e-02  5.983868e+00  5.177361e-01  3.187133e+00
</event>
<event>
     4  9999  1.000000e+00  8.546052e+00  7.613505e-03  2.081785e-01
        1    -1     0     0   101     0  0.0000000000e+00  0.0000000000e+00  1.9316043911e+01  1.9316043911e+01  0.0000000000e+00 0. 9.
       -3    -1     0     0     0   101  0.0000000000e+00  0.0000000000e+00 -3.8845491312e+00  3.8845491312e+00  0.0000000000e+00 0. 9.
        1     1     1     2   102     0 -9.6603443839e-01  8.4809865273e+00  9.6033247941e+00  1.2852746870e+01  3.3000000000e-01 0. 9.
       -3     1     1     2     0   102  9.6603443839e-01 -8.4809865273e+00  5.8281699856e+00  1.0347846172e+01  5.0000000000e-01 0. 9.
#pdf    1   -3  1.931604e-01  3.884549e-02  8.546052e+00  3.028735e-01  8.985067e-02
</event>
<event>
     4  9999  1.000000e+00  5.104732e+00  7.571916e-03  2.395322e-01
        1    -1     0     0   101     0  0.0000000000e+00  0.0000000000e+00  2.6658448118e+01  2.6658448118e+01  0.0000000000e+00 0. 9.
       21    -1     0     0   102   101  0.0000000000e+00  0.0000000000e+00 -2.1937581513e+00  2.1937581513e+00  0.0000000000e+00 0. 9.
        1     1     1     2   103     0 -3.1727219836e+00 -3.9959811129e+00  2.2974660975e+01  2.3536736748e+01  3.3000000000e-01 0. 9.
       21     1     1     2   102   103  3.1727219836e+00  3.9959811129e+00  1.4900289926e+00  5.3154695219e+00  0.0000000000e+00 0. 9.
#pdf    1   21  2.665845e-01  2.193758e-02  5.104732e+00  2.448977e-01  3.811487e+00
</event>
<event>
     4  9999  1.000000e+00  7.874787e+00  7.606872e-03  2.125962e-01
        2    -1     0     0   101     0  0.0000000000e+00  0.0000000000e+00  4.3222599783e+01  4.3222599783e+01  0.0000000000e+00 0. 9.
       21    -1     0     0   102   101  0.0000000000e+00  0.0000000000e+00 -2.2671511445e+01  2.2671511445e+01  0.0000000000e+00 0. 9.
        2     1     1     2   103     0 -6.7345966064e+00  4.0809354672e+00  4.2162470508e+01  4.2892792461e+01  3.3000000000e-01 0. 9.
       21     1     1     2   102   103  6.7345966064e+00 -4.0809354672e+00 -2.1611382170e+01  2.3001318768e+01  0.0000000000e+00 0. 9.
#pdf    2   21  4.322260e-01  2.267151e-01  7.874787e+00  2.684623e-01  4.212383e-01
</event>
<event>
     4  9999  1.000000e+00  6.104562e+00  7.586300e-03  2.276319e-01
       21    -1     0     0   101   102  0.0000000000e+00  0.0000000000e+00  8.4174140133e+00  8.4174140133e+00  0.0000000000e+00 0. 9.
       21    -1     0     0   103   104  0.0000000000e+00  0.0000000000e+00 -6.4296475227e+00  6.4296475227e+00  0.0000000000e+00 0. 9.
       21     1     1     2   101   104 -5.2660397145e+00 -3.0877980867e+00 -3.1489386750e+00  6.8688780800e+00  0.0000000000e+00 0. 9.
       21     1     1     2   103   102  5.2660397145e+00  3.0877980867e+00  5.1367051656e+00  7.9781834560e+00  0.0000000000e+00 0. 9.
#pdf   21   21  8.417414e-02  6.429648e-02  6.104562e+00  1.374454e+00  1.760685e+00
</event>
<event>
     4  9999  1.000000e+00  5.094924e+00  7.571761e-03  2.396669e-01
       21    -1     0     0   102   101  0.0000000000e+00  0.0000000000e+00  1.1154655592e+01  1.1154655592e+01  0.0000000000e+00 0. 9.
       21    -1     0     0   104   103  0.0000000000e+00  0.0000000000e+00 -4.5922814507e+00  4.5922814507e+00  0.0000000000e+00 0. 9.
       21     1     1     2   104   101  4.5467797279e+00  2.2989217445e+00 -2.2485083844e+00  5.5690247832e+00  0.0000000000e+00 0. 9.
       21     1     1     2   102   103 -4.5467797279e+00 -2.2989217445e+00  8.8108825256e+00  1.0177912259e+01  0.0000000000e+00 0. 9.
#pdf   21   21  1.115466e-01  4.592281e-02  5.094924e+00  1.051525e+00  2.313518e+00
</event>
<event>
     4  9999  1.000000e+00  5.629026e+00  7.579771e-03  2.328776e-01
       -1    -1     0     0     0   101  0.0000000000e+00  0.0000000000e+00  1.0834367413e+01  1.0834367413e+01  0.0000000000e+00 0. 9.
       -4    -1     0     0     0   102  0.0000000000e+00  0.0000000000e+00 -3.6219111985e+00  3.6219111985e+00  0.0000000000e+00 0. 9.
       -1     1     1     2     0   102  5.3197303232e+00 -1.5620282634e+00  6.6809082653e+00  8.6880894480e+00  3.3000000000e-01 0. 9.
       -4     1     1     2     0   101 -5.3197303232e+00  1.5620282634e+00  5.3154794949e-01  5.7681891638e+00  1.5000000000e+00 0. 9.
#pdf   -1   -4  1.083437e-01  3.621911e-02  5.629026e+00  1.000321e-01  5.612561e-02
</event>
<event>
     4  9999  1.000000e+00  6.720941e+00  7.594059e-03  2.217084e-01
       21    -1     0     0   102   101  0.0000000000e+00  0.0000000000e+00  5.3424274450e+00  5.3424274450e+00  0.0000000000e+00 0. 9.
       21    -1     0     0   104   103  0.0000000000e+00  0.0000000000e+00 -1.3471873908e+01  1.3471873908e+01  0.0000000000e+00 0. 9.
       21     1     1     2   104   101 -5.6369011115e+00 -3.6601077749e+00  1.6758340237e+00  6.9267209226e+00  0.0000000000e+00 0. 9.
       21     1     1     2   102   103  5.6369011115e+00  3.6601077749e+00 -9.8052804863e+00  1.1887580430e+01  0.0000000000e+00 0. 9.
#pdf   21   21  5.342427e-02  1.347187e-01  6.720941e+00  2.059942e+00  8.293857e-01
</event>
<event>
     4  9999  1.000000e+00  5.215705e+00  7.573642e-03  2.380359e-01
       21    -1     0     0   102   101  0.0000000000e+00  0.0000000000e+00  3.6727499244e+01  3.6727499244e+01  0.0000000000e+00 0. 9.
       21    -1     0     0   104   103  0.0000000000e+00  0.0000000000e+00 -5.1478704426e+00  5.1478704426e+00  0.0000000000e+00 0. 9.
       21     1     1     2   104   101 -1.1823041519e+00  5.0799341618e+00  3.5162749680e+01  3.5547468817e+01  0.0000000000e+00 0. 9.
       21     1     1     2   102   103  1.1823041519e+00 -5.0799341618e+00 -3.5831208784e+00  6.3279008704e+00  0.0000000000e+00 0. 9.
#pdf   21   21  3.672750e-01  5.147870e-02  5.215705e+00  2.173775e-01  2.119934e+00
</event>
<event>
     4  9999  1.000000e+00  7.645789e+00  7.604482e-03  2.142362e-01
       21    -1     0     0   102   101  0.0000000000e+00  0.0000000000e+00  2.5624782710e+00  2.5624782710e+00  0.0000000000e+00 0. 9.
        2    -1     0     0   101     0  0.0000000000e+00  0.0000000000e+00 -2.9190317783e+01  2.9190317783e+01  0.0000000000e+00 0. 9.
       21     1     1     2   102   103 -5.1262671324e+00 -5.6689439855e+00 -5.8910213453e+00  9.6498535281e+00  0.0000000000e+00 0. 9.
        2     1     1     2   103     0  5.1262671324e+00  5.6689439855e+00 -2.0736818167e+01  2.2102942526e+01  3.3000000000e-01 0. 9.
#pdf   21    2  2.562478e-02  2.919032e-01  7.645789e+00  3.597900e+00  4.648264e-01
</event>
<event>
     4  9999  1.000000e+00  5.643029e+00  7.579971e-03  2.327133e-01
       21    -1     0     0   102   101  0.0000000000e+00  0.0000000000e+00  5.0703932871e+00  5.0703932871e+00  0.0000000000e+00 0. 9.
       21    -1     0     0   104   103  0.0000000000e+00  0.0000000000e+00 -2.0325457197e+01  2.0325457197e+01  0.0000000000e+00 0. 9.
       21     1     1     2   104   101  1.8965615595e+00 -5.3147752118e+00 -1.8182947274e+01  1.9038470340e+01  0.0000000000e+00 0. 9.
       21     1     1     2   102   103 -1.8965615595e+00  5.3147752118e+00  2.9278833646e+00  6.3573801441e+00  0.0000000000e+00 0. 9.
#pdf   21   21  5.070393e-02  2.032546e-01  5.643029e+00  2.148632e+00  5.258631e-01
</event>
<event>
     4  9999  1.000000e+00  5.725717e+00  7.581141e-03  2.317561e-01
       21    -1     0     0   102   103  0.0000000000e+00  0.0000000000e+00  1.3062250692e+00  1.3062250692e+00  0.0000000000e+00 0. 9.
        2    -1     0     0   101     0  0.0000000000e+00  0.0000000000e+00 -2.5932623106e+01  2.5932623106e+01  0.0000000000e+00 0. 9.
       21     1     1     2   101   103 -8.8425321433e-01 -5.6523667184e+00 -9.8621606445e+00  1.1401463320e+01  0.0000000000e+00 0. 9.
        2     1     1     2   102     0  8.8425321433e-01  5.6523667184e+00 -1.4764237392e+01  1.5837384855e+01  3.3000000000e-01 0. 9.
#pdf   21    2  1.306225e-02  2.593262e-01  5.725717e+00  5.250171e+00  5.273929e-01
</event>
<event>
     4  9999  1.000000e+00  5.132699e+00  7.572354e-03  2.391503e-01
       21    -1     0     0   101   102  0.0000000000e+00  0.0000000000e+00  2.8295699364e+00  2.8295699364e+00  0.0000000000e+00 0. 9.
       21    -1     0     0   103   104  0.0000000000e+00  0.0000000000e+00 -1.0657193520e+01  1.0657193520e+01  0.0000000000e+00 0. 9.
       21     1     1     2   101   104  4.0669675441e+00 -3.1311941379e+00 -1.5166523319e+00  5.3520870723e+00  0.0000000000e+00 0. 9.
       21     1     1     2   103   102 -4.0669675441e+00  3.1311941379e+00 -6.3109712516e+00  8.1346763840e+00  0.0000000000e+00 0. 9.
#pdf   21   21  2.829570e-02  1.065719e-01  5.132699e+00  3.250175e+00  1.101407e+00
</event>
<event>
     4  9999  1.000000e+00  7.330897e+00  7.601079e-03  2.166177e-01
       21    -1     0     0   102   101  0.0000000000e+00  0.0000000000e+00  2.2365495644e+00  2.2365495644e+00  0.0000000000e+00 0. 9.
       21    -1     0     0   104   103  0.0000000000e+00  0.0000000000e+00 -2.4145003938e+01  2.4145003938e+01  0.0000000000e+00 0. 9.
       21     1     1     2   104   101  3.2623175947e+00  6.5650081736e+00 -1.1868538292e+01  1.3950062710e+01  0.0000000000e+00 0. 9.
       21     1     1     2   102   103 -3.2623175947e+00 -6.5650081736e+00 -1.0039916081e+01  1.2431490792e+01  0.0000000000e+00 0. 9.
#pdf   21   21  2.236550e-02  2.414500e-01  7.330897e+00  3.926856e+00  3.935387e-01
</event>
<event>
     4  9999  1.000000e+00  5.312489e+00  7.575119e-03  2.367715e-01
       21    -1     0     0   102   103  0.0000000000e+00  0.0000000000e+00  1.7090728966e+00  1.7090728966e+00  0.0000000000e+00 0. 9.
        2    -1     0     0   101     0  0.0000000000e+00  0.0000000000e+00 -2.9881705223e+01  2.9881705223e+01  0.0000000000e+00 0. 9.
       21     1     1     2   101   103 -4.1039882676e+00  3.3689367480e+00 -3.5195130075e+00  6.3701982955e+00  0.0000000000e+00 0. 9.
        2     1     1     2   102     0  4.1039882676e+00 -3.3689367480e+00 -2.4653119319e+01  2.5220579824e+01  3.3000000000e-01 0. 9.
#pdf   21    2  1.709073e-02  2.988171e-01  5.312489e+00  4.448772e+00  4.819491e-01
</event>
<event>
     4  9999  1.000000e+00  5.485476e+00  7.577694e-03  2.345997e-01
       21    -1     0     0   101   102  0.0000000000e+00  0.0000000000e+00  1.7181250353e+01  1.7181250353e+01  0.0000000000e+00 0. 9.
       21    -1     0     0   103   104  0.0000000000e+00  0.0000000000e+00 -1.8892449846e+01  1.8892449846e+01  0.0000000000e+00 0. 9.
       21     1     1     2   101   104 -1.8962358466e+00 -5.1473038626e+00 -1.8036101835e+01  1.8851827945e+01  0.0000000000e+00 0. 9.
       21     1     1     2   103   102  1.8962358466e+00  5.1473038626e+00  1.6324902343e+01  1.7221872254e+01  0.0000000000e+00 0. 9.
#pdf   21   21  1.718125e-01  1.889245e-01  5.485476e+00  6.468183e-01  5.781787e-01
</event>
<event>
     4  9999  1.000000e+00  7.610790e+00  7.604111e-03  2.144935e-01
        1    -1     0     0   101     0  0.0000000000e+00  0.0000000000e+00  1.7844270954e+01  1.7844270954e+01  0.0000000000e+00 0. 9.
       -1    -1     0     0     0   102  0.0000000000e+00  0.0000000000e+00 -3.7103967945e+00  3.7103967945e+00  0.0000000000e+00 0. 9.
       21     1     1     2   101   103 -2.2827374810e-01 -7.6073659905e+00  1.0879379038e+01  1.3277236703e+01  0.0000000000e+00 0. 9.
       21     1     1     2   103   102  2.2827374810e-01  7.6073659905e+00  3.2544951217e+00  8.2774310456e+00  0.0000000000e+00 0. 9.
#pdf    1   -1  1.784427e-01  3.710397e-02  7.610790e+00  3.220739e-01  2.241146e-01
</event>
<event>
     4  9999  1.000000e+00  7.301723e+00  7.600756e-03  2.168463e-01
       21    -1     0     0   101   102  0.0000000000e+00  0.0000000000e+00  5.6939422068e+00  5.6939422068e+00  0.0000000000e+00 0. 9.
       -2    -1     0     0     0   101  0.0000000000e+00  0.0000000000e+00 -1.6412231908e+01  1.6412231908e+01  0.0000000000e+00 0. 9.
       21     1     1     2   103   102 -7.1510085002e+00  1.4653265359e+00  1.8839252650e+00  7.5387849705e+00  0.0000000000e+00 0. 9.
       -2     1     1     2     0   103  7.1510085002e+00 -1.4653265359e+00 -1.2602214966e+01  1.4567389144e+01  3.3000000000e-01 0. 9.
#pdf   21   -2  5.693942e-02  1.641223e-01  7.301723e+00  1.949190e+00  3.944003e-02
</event>
<event>
     4  9999  1.000000e+00  5.355991e+00  7.575774e-03  2.362150e-01
       21    -1     0     0   102   101  0.0000000000e+00  0.0000000000e+00  7.0011131477e+00  7.0011131477e+00  0.0000000000e+00 0. 9.
       21    -1     0     0   104   103  0.0000000000e+00  0.0000000000e+00 -5.1838019119e+00  5.1838019119e+00  0.0000000000e+00 0. 9.
       21     1     1     2   104   101 -7.6867504929e-01 -5.3005454172e+00  3.6977006089e+00  6.5084278320e+00  0.0000000000e+00 0. 9.
       21     1     1     2   102   103  7.6867504929e-01  5.3005454172e+00 -1.8803893731e+00  5.6764872276e+00  0.0000000000e+00 0. 9.
#pdf   21   21  7.001113e-02  5.183802e-02  5.355991e+00  1.639616e+00  2.109812e+00
</event>
<event>
     4  9999  1.000000e+00  6.571022e+00  7.592238e-03  2.230697e-01
        2    -1     0     0   101     0  0.0000000000e+00  0.0000000000e+00  3.2262070410e+01  3.2262070410e+01  0.0000000000e+00 0. 9.
       21    -1     0     0   102   103  0.0000000000e+00  0.0000000000e+00 -1.3388053738e+00  1.3388053738e+00  0.0000000000e+00 0. 9.
        2     1     1     2   102     0 -1.1059132163e+00 -6.4730879297e+00  1.5776952514e+01  1.7092250935e+01  3.3000000000e-01 0. 9.
       21     1     1     2   101   103  1.1059132163e+00  6.4730879297e+00  1.5146312522e+01  1.6508624849e+01  0.0000000000e+00 0. 9.
#pdf    2   21  3.226207e-01  1.338805e-02  6.571022e+00  4.329255e-01  5.307217e+00
</event>
<event>
     4  9999  1.000000e+00  7.210329e+00  7.599738e-03  2.175714e-01
        1    -1     0     0   101     0  0.0000000000e+00  0.0000000000e+00  1.6898126322e+00  1.6898126322e+00  0.0000000000e+00 0. 9.
        1    -1     0     0   102     0  0.0000000000e+00  0.0000000000e+00 -6.4947731712e+01  6.4947731712e+01  0.0000000000e+00 0. 9.
        1     1     1     2   101     0 -6.7713433988e+00  2.4670167435e+00 -5.5788472430e+01  5.6252998312e+01  3.3000000000e-01 0. 9.
        1     1     1     2   102     0  6.7713433988e+00 -2.4670167435e+00 -7.4694466498e+00  1.0384546032e+01  3.3000000000e-01 0. 9.
#pdf    1    1  1.689813e-02  6.494773e-01  7.210329e+00  4.720087e-01  1.553409e-02
</event>
<event>
     4  9999  1.000000e+00  8.030284e+00  7.608456e-03  2.115232e-01
       21    -1     0     0   102   101  0.0000000000e+00  0.0000000000e+00  8.3620063052e+00  8.3620063052e+00  0.0000000000e+00 0. 9.
        1    -1     0     0   101     0  0.0000000000e+00  0.0000000000e+00 -1.4928897320e+01  1.4928897320e+01  0.0000000000e+00 0. 9.
       21     1     1     2   102   103  7.9966604851e+00  7.1467795209e-01  4.8125414035e+00  9.3604432720e+00  0.0000000000e+00 0. 9.
        1     1     1     2   103     0 -7.9966604851e+00 -7.1467795209e-01 -1.1379432418e+01  1.3930460353e+01  3.3000000000e-01 0. 9.
#pdf   21    1  8.362006e-02  1.492890e-01  8.030284e+00  1.358150e+00  3.497095e-01
</event>
<event>
     4  9999  1.000000e+00  7.462275e+00  7.602516e-03  2.156055e-01
       21    -1     0     0   102   103  0.0000000000e+00  0.0000000000e+00  3.0073173020e+00  3.0073173020e+00  0.0000000000e+00 0. 9.
        2    -1     0     0   101     0  0.0000000000e+00  0.0000000000e+00 -2.1174566096e+01  2.1174566096e+01  0.0000000000e+00 0. 9.
       21     1     1     2   101   103 -5.5625901812e+00 -4.9694605852e+00 -4.7978581481e+00  8.8689002048e+00  0.0000000000e+00 0. 9.
        2     1     1     2   102     0  5.5625901812e+00  4.9694605852e+00 -1.3369390646e+01  1.5312983193e+01  3.3000000000e-01 0. 9.
#pdf   21    2  3.007317e-02  2.117457e-01  7.462275e+00  3.212430e+00  5.647728e-01
</event>
<event>
     4  9999  1.000000e+00  5.031179e+00  7.570751e-03  2.405526e-01
        1    -1     0     0   101     0  0.0000000000e+00  0.0000000000e+00  3.8543356087e+01  3.8543356087e+01  0.0000000000e+00 0. 9.
       21    -1     0     0   102   103  0.0000000000e+00  0.0000000000e+00 -5.7694283948e+00  5.7694283948e+00  0.0000000000e+00 0. 9.
        1     1     1     2   102     0  5.0139456627e+00 -4.0854552255e-01  3.7243690228e+01  3.7583346343e+01  3.3000000000e-01 0. 9.
       21     1     1     2   101   103 -5.0139456627e+00  4.0854552255e-01 -4.4697625350e+00  6.7294381394e+00  0.0000000000e+00 0. 9.
#pdf    1   21  3.854336e-01  5.769428e-02  5.031179e+00  1.356212e-01  1.933254e+00
</event>
<event>
     4  9999  1.000000e+00  9.820904e+00  7.624906e-03  2.010766e-01
       -1    -1     0     0     0   101  0.0000000000e+00  0.0000000000e+00  7.9428665151e+00  7.9428665151e+00  0.0000000000e+00 0. 9.
       21    -1     0     0   103   102  0.0000000000e+00  0.0000000000e+00 -1.2955131409e+01  1.2955131409e+01  0.0000000000e+00 0. 9.
       -1     1     1     2     0   102  2.4794619241e+00  9.5000736522e+00 -5.1222928241e+00  1.1079075530e+01  3.3000000000e-01 0. 9.
       21     1     1     2   103   101 -2.4794619241e+00 -9.5000736522e+00  1.1002793016e-01  9.8189223938e+00  0.0000000000e+00 0. 9.
#pdf   -1   21  7.942867e-02  1.295513e-01  9.820904e+00  1.324816e-01  8.250678e-01
</event>
<event>
     4  9999  1.000000e+00  5.202665e+00  7.573441e-03  2.382091e-01
       21    -1     0     0   102   101  0.0000000000e+00  0.0000000000e+00  1.8283778902e+00  1.8283778902e+00  0.0000000000e+00 0. 9.
       21    -1     0     0   104   103  0.0000000000e+00  0.0000000000e+00 -1.6956755056e+01  1.6956755056e+01  0.0000000000e+00 0. 9.
       21     1     1     2   104   101 -5.1846609564e+00  4.3244625991e-01 -4.2177146788e+00  6.6975246257e+00  0.0000000000e+00 0. 9.
       21     1     1     2   102   103  5.1846609564e+00 -4.3244625991e-01 -1.0910662487e+01  1.2087608320e+01  0.0000000000e+00 0. 9.
#pdf   21   21  1.828378e-02  1.695676e-01  5.202665e+00  4.261712e+00  6.626012e-01
</event>
<event>
     4  9999  1.000000e+00  6.934797e+00  7.596588e-03  2.198454e-01
       21    -1     0     0   101   102  0.0000000000e+00  0.0000000000e+00  4.2856565870e+00  4.2856565870e+00  0.0000000000e+00 0. 9.
       21    -1     0     0   103   104  0.0000000000e+00  0.0000000000e+00 -2.9699123776e+01  2.9699123776e+01  0.0000000000e+00 0. 9.
       21     1     1     2   101   104 -4.5989008427e+00 -5.1905226026e+00  6.9638737577e-01  6.9696749728e+00  0.0000000000e+00 0. 9.
       21     1     1     2   103   102  4.5989008427e+00  5.1905226026e+00 -2.6109854565e+01  2.7015105390e+01  0.0000000000e+00 0. 9.
#pdf   21   21  4.285657e-02  2.969912e-01  6.934797e+00  2.461079e+00  2.915482e-01
</event>
<event>
     4  9999  1.000000e+00  5.255493e+00  7.574253e-03  2.375117e-01
       -2    -1     0     0     0   101  0.0000000000e+00  0.0000000000e+00  5.2867541721e+00  5.2867541721e+00  0.0000000000e+00 0. 9.
       21    -1     0     0   103   102  0.0000000000e+00  0.0000000000e+00 -5.8669247842e+00  5.8669247842e+00  0.0000000000e+00 0. 9.
       -2     1     1     2     0   102  4.8732047426e+00 -1.9554072845e+00  1.5535744435e+00  5.4858213298e+00  3.3000000000e-01 0. 9.
       21     1     1     2   103   101 -4.8732047426e+00  1.9554072845e+00 -2.1337450557e+00  5.6678576265e+00  0.0000000000e+00 0. 9.
#pdf   -2   21  5.286754e-02  5.866925e-02  5.255493e+00  1.389702e-01  1.907603e+00
</event>
<event>
     4  9999  1.000000e+00  5.174704e+00  7.573008e-03  2.385828e-01
       -2    -1     0     0     0   101  0.0000000000e+00  0.0000000000e+00  3.9553519568e+00  3.9553519568e+00  0.0000000000e+00 0. 9.
       21    -1     0     0   103   102  0.0000000000e+00  0.0000000000e+00 -2.0743899873e+01  2.0743899873e+01  0.0000000000e+00 0. 9.
       -2     1     1     2     0   102 -1.3365298521e+00  4.9973470855e+00  1.7356124670e+00  5.4663553282e+00  3.3000000000e-01 0. 9.
       21     1     1     2   103   101  1.3365298521e+00 -4.9973470855e+00 -1.8524160383e+01  1.9232896502e+01  0.0000000000e+00 0. 9.
#pdf   -2   21  3.955352e-02  2.074390e-01  5.174704e+00  1.739259e-01  5.227943e-01
</event>
<event>
     4  9999  1.000000e+00  5.208619e+00  7.573533e-03  2.381300e-01
       21    -1     0     0   102   101  0.0000000000e+00  0.0000000000e+00  1.4682275131e+01  1.4682275131e+01  0.0000000000e+00 0. 9.
       21    -1     0     0   104   103  0.0000000000e+00  0.0000000000e+00 -8.3182622392e+00  8.3182622392e+00  0.0000000000e+00 0. 9.
       21     1     1     2   104   101 -2.6795383277e+00  4.4665188263e+00 -6.9608382418e+00  8.6938475432e+00  0.0000000000e+00 0. 9.
       21     1     1     2   102   103  2.6795383277e+00 -4.4665188263e+00  1.3324851133e+01  1.4306689827e+01  0.0000000000e+00 0. 9.
#pdf   21   21  1.468228e-01  8.318262e-02  5.208619e+00  7.793966e-01  1.402657e+00
</event>
<event>
     4  9999  1.000000e+00  8.293525e+00  7.611071e-03  2.097768e-01
       21    -1     0     0   102   101  0.0000000000e+00  0.0000000000e+00  2.7795079157e+01  2.7795079157e+01  0.0000000000e+00 0. 9.
       21    -1     0     0   104   103  0.0000000000e+00  0.0000000000e+00 -2.6315072936e+00  2.6315072936e+00  0.0000000000e+00 0. 9.
       21     1     1     2   104   101  2.3610851634e+00 -7.9503355371e+00  8.8672897422e+00  1.2141309059e+01  0.0000000000e+00 0. 9.
       21     1     1     2   102   103 -2.3610851634e+00  7.9503355371e+00  1.6296282121e+01  1.8285277391e+01  0.0000000000e+00 0. 9.
#pdf   21   21  2.779508e-01  2.631507e-02  8.293525e+00  3.057796e-01  3.552179e+00
</event>
<event>
     4  9999  1.000000e+00  7.791263e+00  7.606008e-03  2.131859e-01
       21    -1     0     0   102   101  0.0000000000e+00  0.0000000000e+00  7.4521887763e+00  7.4521887763e+00  0.0000000000e+00 0. 9.
       21    -1     0     0   104   103  0.0000000000e+00  0.0000000000e+00 -9.0556366888e+00  9.0556366888e+00  0.0000000000e+00 0. 9.
       21     1     1     2   104   101  6.8588265153e+00 -3.6959822598e+00  1.8145921371e+00  7.9997831631e+00  0.0000000000e+00 0. 9.
       21     1     1     2   102   103 -6.8588265153e+00  3.6959822598e+00 -3.4180400496e+00  8.5080423020e+00  0.0000000000e+00 0. 9.
#pdf   21   21  7.452189e-02  9.055637e-02  7.791263e+00  1.522808e+00  1.256037e+00
</event>
<event>
     4  9999  1.000000e+00  6.989498e+00  7.597223e-03  2.193830e-01
       21    -1     0     0   102   101  0.0000000000e+00  0.0000000000e+00  3.7426338518e+01  3.7426338518e+01  0.0000000000e+00 0. 9.
       21    -1     0     0   103   102  0.0000000000e+00  0.0000000000e+00 -5.6549987624e+00  5.6549987624e+00  0.0000000000e+00 0. 9.
       21     1     1     2   104   101  4.5863285609e+00 -5.2743411451e+00  3.4777405842e+01  3.5472821164e+01  0.0000000000e+00 0. 9.
       21     1     1     2   103   104 -4.5863285609e+00  5.2743411451e+00 -3.0060660867e+00  7.6085161169e+00  0.0000000000e+00 0. 9.
#pdf   21   21  3.742634e-01  5.654999e-02  6.989498e+00  1.765480e-01  1.962262e+00
</event>
<event>
     4  9999  1.000000e+00  5.161932e+00  7.572810e-03  2.387546e-01
       21    -1     0     0   102   101  0.0000000000e+00  0.0000000000e+00  2.6262475078e+00  2.6262475078e+00  0.0000000000e+00 0. 9.
        1    -1     0     0   101     0  0.0000000000e+00  0.0000000000e+00 -2.7287512365e+01  2.7287512365e+01  0.0000000000e+00 0. 9.
       21     1     1     2   102   103 -4.4841920923e+00  2.5529037682e+00 -4.7589304715e-01  5.1818694081e+00  0.0000000000e+00 0. 9.
        1     1     1     2   103     0  4.4841920923e+00 -2.5529037682e+00 -2.4185371810e+01  2.4731890465e+01  3.3000000000e-01 0. 9.
#pdf   21    1  2.626248e-02  2.728751e-01  5.161932e+00  3.412634e+00  2.379566e-01
</event>
<event>
     4  9999  1.000000e+00  5.043548e+00  7.570948e-03  2.403793e-01
       21    -1     0     0   102   103  0.0000000000e+00  0.0000000000e+00  2.8952963192e+00  2.8952963192e+00  0.0000000000e+00 0. 9.
        2    -1     0     0   101     0  0.0000000000e+00  0.0000000000e+00 -9.6533951021e+00  9.6533951021e+00  0.0000000000e+00 0. 9.
       21     1     1     2   101   103 -3.2042393030e+00 -3.8885341811e+00 -1.4965552035e+00  5.2561892152e+00  0.0000000000e+00 0. 9.
        2     1     1     2   102     0  3.2042393030e+00  3.8885341811e+00 -5.2615435794e+00  7.2925022062e+00  3.3000000000e-01 0. 9.
#pdf   21    2  2.895296e-02  9.653395e-02  5.043548e+00  3.195502e+00  6.263724e-01
</event>
<event>
     4  9999  1.000000e+00  6.385896e+00  7.589932e-03  2.248184e-01
       -3    -1     0     0     0   101  0.0000000000e+00  0.0000000000e+00  1.6580174142e+01  1.6580174142e+01  0.0000000000e+00 0. 9.
       21    -1     0     0   101   102  0.0000000000e+00  0.0000000000e+00 -2.0440650450e+01  2.0440650450e+01  0.0000000000e+00 0. 9.
       -3     1     1     2     0   103 -5.6436554025e+00 -2.9855967496e+00  1.5427292230e+01  1.6703771424e+01  5.0000000000e-01 0. 9.
       21     1     1     2   103   102  5.6436554025e+00  2.9855967496e+00 -1.9287768537e+01  2.0317053167e+01  0.0000000000e+00 0. 9.
#pdf   -3   21  1.658017e-01  2.044065e-01  6.385896e+00  2.007518e-02  5.079484e-01
</event>
<event>
     4  9999  1.000000e+00  5.292624e+00  7.574818e-03  2.370281e-01
       21    -1     0     0   102   101  0.0000000000e+00  0.0000000000e+00  4.0411836859e+00  4.0411836859e+00  0.0000000000e+00 0. 9.
       21    -1     0     0   101   103  0.0000000000e+00  0.0000000000e+00 -7.6994231377e+00  7.6994231377e+00  0.0000000000e+00 0. 9.
       21     1     1     2   104   103 -4.6276557364e+00  2.5683982769e+00 -3.6829166544e+00  6.4479254344e+00  0.0000000000e+00 0. 9.
       21     1     1     2   102   104  4.6276557364e+00 -2.5683982769e+00  2.4677202634e-02  5.2926813893e+00  0.0000000000e+00 0. 9.
#pdf   21   21  4.041184e-02  7.699423e-02  5.292624e+00  2.549327e+00  1.505733e+00
</event>
<event>
     4  9999  1.000000e+00  5.578248e+00  7.579043e-03  2.334788e-01
        3    -1     0     0   101     0  0.0000000000e+00  0.0000000000e+00  3.1273698708e+00  3.1273698708e+00  0.0000000000e+00 0. 9.
       21    -1     0     0   102   103  0.0000000000e+00  0.0000000000e+00 -9.9499562601e+00  9.9499562601e+00  0.0000000000e+00 0. 9.
        3     1     1     2   102     0 -5.5504623638e+00 -4.2935348839e-01 -3.3964650043e+00  6.5404855627e+00  5.0000000000e-01 0. 9.
       21     1     1     2   101   103  5.5504623638e+00  4.2935348839e-01 -3.4261213850e+00  6.5368405683e+00  0.0000000000e+00 0. 9.
#pdf    3   21  3.127370e-02  9.949956e-02  5.578248e+00  9.303055e-02  1.173284e+00
</event>
<event>
     4  9999  1.000000e+00  5.964285e+00  7.584428e-03  2.291113e-01
       21    -1     0     0   102   103  0.0000000000e+00  0.0000000000e+00  4.3798117479e+01  4.3798117479e+01  0.0000000000e+00 0. 9.
        2    -1     0     0   101     0  0.0000000000e+00  0.0000000000e+00 -1.2749768650e+00  1.2749768650e+00  0.0000000000e+00 0. 9.
       21     1     1     2   101   103  4.2388572386e+00  4.1916706194e+00  3.4822201565e+01  3.5328794702e+01  0.0000000000e+00 0. 9.
        2     1     1     2   102     0 -4.2388572386e+00 -4.1916706194e+00  7.7009390482e+00  9.7442996411e+00  3.3000000000e-01 0. 9.
#pdf   21    2  4.379812e-01  1.274977e-02  5.964285e+00  1.152208e-01  5.583554e-01
</event>
<event>
     4  9999  1.000000e+00  1.072752e+01  7.632357e-03  1.968128e-01
       21    -1     0     0   102   101  0.0000000000e+00  0.0000000000e+00  4.8831296988e+00  4.8831296988e+00  0.0000000000e+00 0. 9.
       21    -1     0     0   101   103  0.0000000000e+00  0.0000000000e+00 -2.7456844975e+01  2.7456844975e+01  0.0000000000e+00 0. 9.
       21     1     1     2   104   103 -5.1300809512e+00 -9.4213586921e+00 -1.7373275967e+01  2.0418385049e+01  0.0000000000e+00 0. 9.
       21     1     1     2   102   104  5.1300809512e+00  9.4213586921e+00 -5.2004393084e+00  1.1921589624e+01  0.0000000000e+00 0. 9.
#pdf   21   21  4.883130e-02  2.745684e-01  1.072752e+01  2.210089e+00  2.867139e-01
</event>
<event>
     4  9999  1.000000e+00  6.244226e+00  7.588123e-03  2.262106e-01
       21    -1     0     0   102   101  0.0000000000e+00  0.0000000000e+00  1.6031334804e+01  1.6031334804e+01  0.0000000000e+00 0. 9.
        2    -1     0     0   101     0  0.0000000000e+00  0.0000000000e+00 -1.1850107004e+01  1.1850107004e+01  0.0000000000e+00 0. 9.
       21     1     1     2   102   103 -1.7556907767e+00 -5.9913882601e+00  1.4516578093e+01  1.5802222088e+01  0.0000000000e+00 0. 9.
        2     1     1     2   103     0  1.7556907767e+00  5.9913882601e+00 -1.0335350292e+01  1.2079219720e+01  3.3000000000e-01 0. 9.
#pdf   21    2  1.603133e-01  1.185011e-01  6.244226e+00  6.858346e-01  6.278242e-01
</event>
<event>
     4  9999  1.000000e+00  9.017085e+00  7.617861e-03  2.053795e-01
        2    -1     0     0   101     0  0.0000000000e+00  0.0000000000e+00  3.2378697860e+01  3.2378697860e+01  0.0000000000e+00 0. 9.
        1    -1     0     0   102     0  0.0000000000e+00  0.0000000000e+00 -3.5489265109e+00  3.5489265109e+00  0.0000000000e+00 0. 9.
        2     1     1     2   102     0  7.7755809723e+00 -4.5575333108e+00  2.4124358700e+01  2.5755084003e+01  3.3000000000e-01 0. 9.
        1     1     1     2   101     0 -7.7755809723e+00  4.5575333108e+00  4.7054126497e+00  1.0172540368e+01  3.3000000000e-01 0. 9.
#pdf    2    1  3.237870e-01  3.548927e-02  9.017085e+00  4.092953e-01  4.419529e-01
</event>
<event>
     4  9999  1.000000e+00  5.120386e+00  7.572161e-03  2.393180e-01
        1    -1     0     0   101     0  0.0000000000e+00  0.0000000000e+00  8.8463870767e+00  8.8463870767e+00  0.0000000000e+00 0. 9.
       21    -1     0     0   102   101  0.0000000000e+00  0.0000000000e+00 -9.2995969733e+00  9.2995969733e+00  0.0000000000e+00 0. 9.
        1     1     1     2   103     0 -2.1132892116e+00 -4.6620818982e+00  7.2597982919e+00  8.8890140148e+00  3.3000000000e-01 0. 9.
       21     1     1     2   102   103  2.1132892116e+00  4.6620818982e+00 -7.7130081885e+00  9.2569700352e+00  0.0000000000e+00 0. 9.
#pdf    1   21  8.846387e-02  9.299597e-02  5.120386e+00  4.049081e-01  1.262197e+00
</event>
<event>
     4  9999  1.000000e+00  8.142242e+00  7.609579e-03  2.107700e-01
       21    -1     0     0   101   102  0.0000000000e+00  0.0000000000e+00  5.7058952144e+00  5.7058952144e+00  0.0000000000e+00 0. 9.
       21    -1     0     0   102   103  0.0000000000e+00  0.0000000000e+00 -1.2077694925e+01  1.2077694925e+01  0.0000000000e+00 0. 9.
       21     1     1     2   101   104  4.1544683976e+00 -7.0026062592e+00 -4.9189733902e+00  9.5127494081e+00  0.0000000000e+00 0. 9.
       21     1     1     2   104   103 -4.1544683976e+00  7.0026062592e+00 -1.4528263207e+00  8.2708407315e+00  0.0000000000e+00 0. 9.
#pdf   21   21  5.705895e-02  1.207769e-01  8.142242e+00  1.941216e+00  9.166040e-01
</event>
<event>
     4  9999  1.000000e+00  1.127454e+01  7.636560e-03  1.944899e-01
        2    -1     0     0   101     0  0.0000000000e+00  0.0000000000e+00  2.5821091797e+01  2.5821091797e+01  0.0000000000e+00 0. 9.
       21    -1     0     0   102   103  0.0000000000e+00  0.0000000000e+00 -4.9313076632e+00  4.9313076632e+00  0.0000000000e+00 0. 9.
        2     1     1     2   102     0  1.0688968760e+01 -3.5786649468e+00  9.8132307237e+00  1.4948889363e+01  3.3000000000e-01 0. 9.
       21     1     1     2   101   103 -1.0688968760e+01  3.5786649468e+00  1.1076553410e+01  1.5803510097e+01  0.0000000000e+00 0. 9.
#pdf    2   21  2.582109e-01  4.931308e-02  1.127454e+01  4.856033e-01  2.189421e+00
</event>
<event>
     4  9999  1.000000e+00  5.494140e+00  7.577821e-03  2.344938e-01
       21    -1     0     0   102   101  0.0000000000e+00  0.0000000000e+00  3.6791215973e+00  3.6791215973e+00  0.0000000000e+00 0. 9.
       21    -1     0     0   104   103  0.0000000000e+00  0.0000000000e+00 -2.0908231291e+01  2.0908231291e+01  0.0000000000e+00 0. 9.
       21     1     1     2   104   101 -9.3062495325e-01 -5.4147496401e+00  9.6814185922e-01  5.5787879623e+00  0.0000000000e+00 0. 9.
       21     1     1     2   102   103  9.3062495325e-01  5.4147496401e+00 -1.8197251553e+01  1.9008564926e+01  0.0000000000e+00 0. 9.
#pdf   21   21  3.679122e-02  2.090823e-01  5.494140e+00  2.734345e+00  5.108943e-01
</event>
<event>
     4  9999  1.000000e+00  8.744601e+00  7.615369e-03  2.069711e-01
        1    -1     0     0   101     0  0.0000000000e+00  0.0000000000e+00  6.1105841376e+00  6.1105841376e+00  0.0000000000e+00 0. 9.
       21    -1     0     0   102   103  0.0000000000e+00  0.0000000000e+00 -1.5222507692e+01  1.5222507692e+01  0.0000000000e+00 0. 9.
        1     1     1     2   102     0 -8.1389577869e+00 -3.1907130379e+00 -5.9329601664e-02  8.7484686402e+00  3.3000000000e-01 0. 9.
       21     1     1     2   101   103  8.1389577869e+00  3.1907130379e+00 -9.0525939527e+00  1.2584623189e+01  0.0000000000e+00 0. 9.
#pdf    1   21  6.110584e-02  1.522251e-01  8.744601e+00  4.196449e-01  6.911472e-01
</event>
<event>
     4  9999  1.000000e+00  6.719369e+00  7.594040e-03  2.217224e-01
       21    -1     0     0   102   103  0.0000000000e+00  0.0000000000e+00  1.7656508411e+00  1.7656508411e+00  0.0000000000e+00 0. 9.
        2    -1     0     0   101     0  0.0000000000e+00  0.0000000000e+00 -4.1347750686e+01  4.1347750686e+01  0.0000000000e+00 0. 9.
       21     1     1     2   101   103  3.9621738913e+00  5.4237838941e+00 -3.3094327592e+01  3.3769080124e+01  0.0000000000e+00 0. 9.
        2     1     1     2   102     0 -3.9621738913e+00 -5.4237838941e+00 -6.4877722530e+00  9.3443214029e+00  3.3000000000e-01 0. 9.
#pdf   21    2  1.765651e-02  4.134775e-01  6.719369e+00  4.518193e+00  3.037219e-01
</event>
<event>
     4  9999  1.000000e+00  6.364972e+00  7.589667e-03  2.250210e-01
       21    -1     0     0   102   101  0.0000000000e+00  0.0000000000e+00  2.1993269187e+01  2.1993269187e+01  0.0000000000e+00 0. 9.
       21    -1     0     0   101   103  0.0000000000e+00  0.0000000000e+00 -2.4760783288e+00  2.4760783288e+00  0.0000000000e+00 0. 9.
       21     1     1     2   104   103  2.8361959063e+00  5.6981451735e+00  3.5675786771e+00  7.2966076539e+00  0.0000000000e+00 0. 9.
       21     1     1     2   102   104 -2.8361959063e+00 -5.6981451735e+00  1.5949612181e+01  1.7172739862e+01  0.0000000000e+00 0. 9.
#pdf   21   21  2.199327e-01  2.476078e-02  6.364972e+00  4.628271e-01  3.625043e+00
</event>
<event>
     4  9999  1.000000e+00  5.377804e+00  7.576101e-03  2.359386e-01
       21    -1     0     0   102   101  0.0000000000e+00  0.0000000000e+00  1.0080774876e+01  1.0080774876e+01  0.0000000000e+00 0. 9.
       21    -1     0     0   104   103  0.0000000000e+00  0.0000000000e+00 -6.8224229544e+00  6.8224229544e+00  0.0000000000e+00 0. 9.
       21     1     1     2   104   101 -3.0578851148e+00 -4.4238124248e+00 -4.8045337026e+00  7.2114022107e+00  0.0000000000e+00 0. 9.
       21     1     1     2   102   103  3.0578851148e+00  4.4238124248e+00  8.0628856245e+00  9.6917956200e+00  0.0000000000e+00 0. 9.
#pdf   21   21  1.008077e-01  6.822423e-02  5.377804e+00  1.161391e+00  1.677281e+00
</event>
<event>
     4  9999  1.000000e+00  5.838460e+00  7.582711e-03  2.304851e-01
       -2    -1     0     0     0   101  0.0000000000e+00  0.0000000000e+00  3.7211772134e+00  3.7211772134e+00  0.0000000000e+00 0. 9.
       21    -1     0     0   101   102  0.0000000000e+00  0.0000000000e+00 -1.3753531949e+01  1.3753531949e+01  0.0000000000e+00 0. 9.
       -2     1     1     2     0   103  5.0960186518e+00 -2.8428784101e+00  2.7701353740e-02  5.8447438883e+00  3.3000000000e-01 0. 9.
       21     1     1     2   103   102 -5.0960186518e+00  2.8428784101e+00 -1.0060056089e+01  1.1629965274e+01  0.0000000000e+00 0. 9.
#pdf   -2   21  3.721177e-02  1.375353e-01  5.838460e+00  1.833687e-01  8.256880e-01
</event>
<event>
     4  9999  1.000000e+00  5.311834e+00  7.575109e-03  2.367800e-01
       21    -1     0     0   103   102  0.0000000000e+00  0.0000000000e+00  3.4856187699e+01  3.4856187699e+01  0.0000000000e+00 0. 9.
       -3    -1     0     0     0   101  0.0000000000e+00  0.0000000000e+00 -1.7712828651e+00  1.7712828651e+00  0.0000000000e+00 0. 9.
       21     1     1     2   103   101 -2.1990456881e+00 -4.8293566047e+00  3.0443103606e+00  6.1177048577e+00  0.0000000000e+00 0. 9.
       -3     1     1     2     0   102  2.1990456881e+00  4.8293566047e+00  3.0040594473e+01  3.0509765707e+01  5.0000000000e-01 0. 9.
#pdf   21   -3  3.485619e-01  1.771283e-02  5.311834e+00  2.420281e-01  1.287494e-01
</event>
<event>
     4  9999  1.000000e+00  6.039340e+00  7.585435e-03  2.283131e-01
       21    -1     0     0   101   102  0.0000000000e+00  0.0000000000e+00  2.0716471534e+01  2.0716471534e+01  0.0000000000e+00 0. 9.
       21    -1     0     0   103   104  0.0000000000e+00  0.0000000000e+00 -2.6647009402e+00  2.6647009402e+00  0.0000000000e+00 0. 9.
       21     1     1     2   101   104 -3.6934620990e+00 -4.7782811925e+00  2.2163412135e+00  6.4331797586e+00  0.0000000000e+00 0. 9.
       21     1     1     2   103   102  3.6934620990e+00  4.7782811925e+00  1.5835429381e+01  1.6947992716e+01  0.0000000000e+00 0. 9.
#pdf   21   21  2.071647e-01  2.664701e-02  6.039340e+00  5.058022e-01  3.436163e+00
</event>
<event>
     4  9999  1.000000e+00  1.086144e+01  7.633405e-03  1.962282e-01
        2    -1     0     0   101     0  0.0000000000e+00  0.0000000000e+00  5.1623565555e+01  5.1623565555e+01  0.0000000000e+00 0. 9.
        1    -1     0     0   102     0  0.0000000000e+00  0.0000000000e+00 -1.2393466639e+01  1.2393466639e+01  0.0000000000e+00 0. 9.
        2     1     1     2   102     0 -8.1755917472e+00 -7.1491637652e+00  4.8519865391e+01  4.9721595716e+01  3.3000000000e-01 0. 9.
        1     1     1     2   101     0  8.1755917472e+00  7.1491637652e+00 -9.2897664750e+00  1.4295436479e+01  3.3000000000e-01 0. 9.
#pdf    2    1  5.162357e-01  1.239347e-01  1.086144e+01  1.555637e-01  3.668414e-01
</event>
<event>
     4  9999  1.000000e+00  5.664579e+00  7.580278e-03  2.324618e-01
        2    -1     0     0   101     0  0.0000000000e+00  0.0000000000e+00  5.4726225279e+01  5.4726225279e+01  0.0000000000e+00 0. 9.
       21    -1     0     0   102   103  0.0000000000e+00  0.0000000000e+00 -5.8728391837e-01  5.8728391837e-01  0.0000000000e+00 0. 9.
        2     1     1     2   102     0 -5.5857121939e+00 -9.1265049063e-01  2.5976814661e+01  2.6588285231e+01  3.3000000000e-01 0. 9.
       21     1     1     2   101   103  5.5857121939e+00  9.1265049063e-01  2.8162126700e+01  2.8725223966e+01  0.0000000000e+00 0. 9.
#pdf    2   21  5.472623e-01  5.872839e-03  5.664579e+00  1.537210e-01  7.927099e+00
</event>
<event>
     4  9999  1.000000e+00  5.103043e+00  7.571889e-03  2.395553e-01
       21    -1     0     0   102   101  0.0000000000e+00  0.0000000000e+00  7.2142064004e+00  7.2142064004e+00  0.0000000000e+00 0. 9.
        2    -1     0     0   101     0  0.0000000000e+00  0.0000000000e+00 -1.0842315827e+01  1.0842315827e+01  0.0000000000e+00 0. 9.
       21     1     1     2   102   103 -5.0026319004e+00  9.9829644452e-01  5.5578057146e+00  7.5440125983e+00  0.0000000000e+00 0. 9.
        2     1     1     2   103     0  5.0026319004e+00 -9.9829644452e-01 -9.1859151413e+00  1.0512509629e+01  3.3000000000e-01 0. 9.
#pdf   21    2  7.214206e-02  1.084232e-01  5.103043e+00  1.598207e+00  6.300740e-01
</event>
<event>
     4  9999  1.000000e+00  9.094939e+00  7.618560e-03  2.049380e-01
       21    -1     0     0   101   102  0.0000000000e+00  0.0000000000e+00  1.7034775221e+01  1.7034775221e+01  0.0000000000e+00 0. 9.
       21    -1     0     0   103   104  0.0000000000e+00  0.0000000000e+00 -5.3237917647e+00  5.3237917647e+00  0.0000000000e+00 0. 9.
       21     1     1     2   101   104  2.8197353815e+00 -8.6467915834e+00  2.5410509333e+00  9.4432437305e+00  0.0000000000e+00 0. 9.
       21     1     1     2   103   102 -2.8197353815e+00  8.6467915834e+00  9.1699325227e+00  1.2915323255e+01  0.0000000000e+00 0. 9.
#pdf   21   21  1.703478e-01  5.323792e-02  9.094939e+00  5.969428e-01  2.057115e+00
</event>
<event>
     4  9999  1.000000e+00  6.615951e+00  7.592788e-03  2.226567e-01
       21    -1     0     0   101   102  0.0000000000e+00  0.0000000000e+00  9.4509199184e-01  9.4509199184e-01  0.0000000000e+00 0. 9.
       21    -1     0     0   103   104  0.0000000000e+00  0.0000000000e+00 -4.6335243671e+01  4.6335243671e+01  0.0000000000e+00 0. 9.
       21     1     1     2   101   104 -2.9982004672e+00 -5.8975926088e+00 -2.3203599154e+01  2.4128361286e+01  0.0000000000e+00 0. 9.
       21     1     1     2   103   102  2.9982004672e+00  5.8975926088e+00 -2.2186552525e+01  2.3151974377e+01  0.0000000000e+00 0. 9.
#pdf   21   21  9.450920e-03  4.633524e-01  6.615951e+00  6.451906e+00  8.338145e-02
</event>
<event>
     4  9999  1.000000e+00  5.099715e+00  7.571837e-03  2.396010e-01
       21    -1     0     0   102   101  0.0000000000e+00  0.0000000000e+00  1.7063003521e+00  1.7063003521e+00  0.0000000000e+00 0. 9.
       21    -1     0     0   104   103  0.0000000000e+00  0.0000000000e+00 -1.5251863406e+01  1.5251863406e+01  0.0000000000e+00 0. 9.
       21     1     1     2   104   101 -3.1264901099e+00  4.0289144788e+00 -6.5550032099e+00  8.3051284979e+00  0.0000000000e+00 0. 9.
       21     1     1     2   102   103  3.1264901099e+00 -4.0289144788e+00 -6.9905598444e+00  8.6530352607e+00  0.0000000000e+00 0. 9.
#pdf   21   21  1.706300e-02  1.525186e-01  5.099715e+00  4.419513e+00  7.491725e-01
</event>
<event>
     4  9999  1.000000e+00  5.195370e+00  7.573329e-03  2.383063e-01
       21    -1     0     0   102   103  0.0000000000e+00  0.0000000000e+00  2.0386139555e+01  2.0386139555e+01  0.0000000000e+00 0. 9.
        2    -1     0     0   101     0  0.0000000000e+00  0.0000000000e+00 -3.5829499718e+00  3.5829499718e+00  0.0000000000e+00 0. 9.
       21     1     1     2   101   103 -4.0977749840e+00  3.1906095138e+00  1.7910853550e+01  1.8648603802e+01  0.0000000000e+00 0. 9.
        2     1     1     2   102     0  4.0977749840e+00 -3.1906095138e+00 -1.1076639661e+00  5.3204857251e+00  3.3000000000e-01 0. 9.
#pdf   21    2  2.038614e-01  3.582950e-02  5.195370e+00  5.334530e-01  5.678610e-01
</event>
<event>
     4  9999  1.000000e+00  5.826380e+00  7.582544e-03  2.306195e-01
        2    -1     0     0   101     0  0.0000000000e+00  0.0000000000e+00  4.2588402527e+00  4.2588402527e+00  0.0000000000e+00 0. 9.
       21    -1     0     0   102   101  0.0000000000e+00  0.0000000000e+00 -1.4239271629e+01  1.4239271629e+01  0.0000000000e+00 0. 9.
        2     1     1     2   103     0 -1.5778755538e+00 -5.6059380004e+00  1.1414421059e+00  5.9437380669e+00  3.3000000000e-01 0. 9.
       21     1     1     2   102   103  1.5778755538e+00  5.6059380004e+00 -1.1121873482e+01  1.2554373815e+01  0.0000000000e+00 0. 9.
#pdf    2   21  4.258840e-02  1.423927e-01  5.826380e+00  5.812935e-01  7.942230e-01
</event>
<event>
     4  9999  1.000000e+00  6.947114e+00  7.596732e-03  2.197408e-01
        2    -1     0     0   101     0  0.0000000000e+00  0.0000000000e+00  1.9611049415e+01  1.9611049415e+01  0.0000000000e+00 0. 9.
       21    -1     0     0   102   101  0.0000000000e+00  0.0000000000e+00 -8.7922691972e+00  8.7922691972e+00  0.0000000000e+00 0. 9.
        2     1     1     2   103     0 -6.8871269008e+00  9.0257401606e-01  1.7459663216e+01  1.8793506762e+01  3.3000000000e-01 0. 9.
       21     1     1     2   102   103  6.8871269008e+00 -9.0257401606e-01 -6.6408829980e+00  9.6098118502e+00  0.0000000000e+00 0. 9.
#pdf    2   21  1.961105e-01  8.792269e-02  6.947114e+00  5.837491e-01  1.305454e+00
</event>
<event>
     4  9999  1.000000e+00  5.260564e+00  7.574330e-03  2.374453e-01
        1    -1     0     0   101     0  0.0000000000e+00  0.0000000000e+00  5.1390842638e+00  5.1390842638e+00  0.0000000000e+00 0. 9.
       21    -1     0     0   102   101  0.0000000000e+00  0.0000000000e+00 -5.9611841069e+00  5.9611841069e+00  0.0000000000e+00 0. 9.
        1     1     1     2   103     0  3.2440278340e+00  4.1352940262e+00  1.3126882926e+00  5.4273772510e+00  3.3000000000e-01 0. 9.
       21     1     1     2   102   103 -3.2440278340e+00 -4.1352940262e+00 -2.1347881358e+00  5.6728911197e+00  0.0000000000e+00 0. 9.
#pdf    1   21  5.139084e-02  5.961184e-02  5.260564e+00  4.209736e-01  1.882533e+00
</event>
<event>
     4  9999  1.000000e+00  5.184337e+00  7.573158e-03  2.384537e-01
       21    -1     0     0   103   102  0.0000000000e+00  0.0000000000e+00  6.1497982923e+00  6.1497982923e+00  0.0000000000e+00 0. 9.
       -2    -1     0     0     0   101  0.0000000000e+00  0.0000000000e+00 -4.7893614853e+00  4.7893614853e+00  0.0000000000e+00 0. 9.
       21     1     1     2   103   101  4.3672931164e+00 -2.7846782273e+00  2.2957260519e+00  5.6655132247e+00  0.0000000000e+00 0. 9.
       -2     1     1     2     0   102 -4.3672931164e+00  2.7846782273e+00 -9.3528924484e-01  5.2736465529e+00  3.3000000000e-01 0. 9.
#pdf   21   -2  6.149798e-02  4.789361e-02  5.184337e+00  1.834018e+00  1.505067e-01
</event>
<event>
     4  9999  1.000000e+00  6.221797e+00  7.587833e-03  2.264355e-01
       21    -1     0     0   102   101  0.0000000000e+00  0.0000000000e+00  1.0365656981e+00  1.0365656981e+00  0.0000000000e+00 0. 9.
       21    -1     0     0   101   103  0.0000000000e+00  0.0000000000e+00 -3.8594510041e+01  3.8594510041e+01  0.0000000000e+00 0. 9.
       21     1     1     2   104   103 -6.1311215148e+00 -1.0583498207e+00 -2.2344122674e+01  2.3194192666e+01  0.0000000000e+00 0. 9.
       21     1     1     2   102   104  6.1311215148e+00  1.0583498207e+00 -1.5213821669e+01  1.6436883073e+01  0.0000000000e+00 0. 9.
#pdf   21   21  1.036566e-02  3.859451e-01  6.221797e+00  6.058808e+00  1.727326e-01
</event>
<event>
     4  9999  1.000000e+00  7.347418e+00  7.601261e-03  2.164889e-01
       21    -1     0     0   102   101  0.0000000000e+00  0.0000000000e+00  8.5665902533e+00  8.5665902533e+00  0.0000000000e+00 0. 9.
       21    -1     0     0   104   103  0.0000000000e+00  0.0000000000e+00 -6.3820457899e+00  6.3820457899e+00  0.0000000000e+00 0. 9.
       21     1     1     2   104   101 -7.2421133578e+00 -1.2394949070e+00  2.5392428303e-01  7.3518046121e+00  0.0000000000e+00 0. 9.
       21     1     1     2   102   103  7.2421133578e+00  1.2394949070e+00  1.9306201803e+00  7.5968314311e+00  0.0000000000e+00 0. 9.
#pdf   21   21  8.566590e-02  6.382046e-02  7.347418e+00  1.334209e+00  1.762541e+00
</event>
<event>
     4  9999  1.000000e+00  5.112479e+00  7.572037e-03  2.394261e-01
        2    -1     0     0   101     0  0.0000000000e+00  0.0000000000e+00  2.4587546203e+01  2.4587546203e+01  0.0000000000e+00 0. 9.
       21    -1     0     0   102   103  0.0000000000e+00  0.0000000000e+00 -1.2144277929e+00  1.2144277929e+00  0.0000000000e+00 0. 9.
        2     1     1     2   102     0 -3.9456752818e+00  3.2436774991e+00  1.6248065754e+01  1.7035208771e+01  3.3000000000e-01 0. 9.
       21     1     1     2   101   103  3.9456752818e+00 -3.2436774991e+00  7.1250526568e+00  8.7667652249e+00  0.0000000000e+00 0. 9.
#pdf    2   21  2.458755e-01  1.214428e-02  5.112479e+00  5.511740e-01  5.335908e+00
</event>
<event>
     4  9999  1.000000e+00  6.537437e+00  7.591824e-03  2.233813e-01
       21    -1     0     0   102   101  0.0000000000e+00  0.0000000000e+00  3.5362269150e+00  3.5362269150e+00  0.0000000000e+00 0. 9.
       21    -1     0     0   103   102  0.0000000000e+00  0.0000000000e+00 -1.2630537513e+01  1.2630537513e+01  0.0000000000e+00 0. 9.
       21     1     1     2   104   101  4.7712501836e+00  4.4691443683e+00 -2.8684222093e+00  7.1390423496e+00  0.0000000000e+00 0. 9.
       21     1     1     2   103   104 -4.7712501836e+00 -4.4691443683e+00 -6.2258883890e+00  9.0277220787e+00  0.0000000000e+00 0. 9.
#pdf   21   21  3.536227e-02  1.263054e-01  6.537437e+00  2.839857e+00  8.951505e-01
</event>
<event>
     4  9999  1.000000e+00  6.005417e+00  7.584981e-03  2.286719e-01
       21    -1     0     0   101   102  0.0000000000e+00  0.0000000000e+00  1.1018681208e+01  1.1018681208e+01  0.0000000000e+00 0. 9.
       21    -1     0     0   102   103  0.0000000000e+00  0.0000000000e+00 -4.1099217273e+00  4.1099217273e+00  0.0000000000e+00 0. 9.
       21     1     1     2   101   104  3.5367472150e+00 -4.8534989421e+00  6.8676724601e+00  9.1230454269e+00  0.0000000000e+00 0. 9.
       21     1     1     2   104   103 -3.5367472150e+00  4.8534989421e+00  4.1087020701e-02  6.0055575084e+00  0.0000000000e+00 0. 9.
#pdf   21   21  1.101868e-01  4.109922e-02  6.005417e+00  1.048318e+00  2.531134e+00
</event>
<event>
     4  9999  1.000000e+00  9.050256e+00  7.618159e-03  2.051907e-01
       21    -1     0     0   102   101  0.0000000000e+00  0.0000000000e+00  1.2685144645e+01  1.2685144645e+01  0.0000000000e+00 0. 9.
       21    -1     0     0   104   103  0.0000000000e+00  0.0000000000e+00 -9.4759072755e+00  9.4759072755e+00  0.0000000000e+00 0. 9.
       21     1     1     2   104   101  6.1776458123e+00 -6.6139120173e+00 -4.6496944155e+00  1.0174811945e+01  0.0000000000e+00 0. 9.
       21     1     1     2   102   103 -6.1776458123e+00  6.6139120173e+00  7.8589317855e+00  1.1986239976e+01  0.0000000000e+00 0. 9.
#pdf   21   21  1.268514e-01  9.475907e-02  9.050256e+00  8.548412e-01  1.182913e+00
</event>
<event>
     4  9999  1.000000e+00  8.218111e+00  7.610331e-03  2.102685e-01
       21    -1     0     0   102   101  0.0000000000e+00  0.0000000000e+00  1.6432446013e+00  1.6432446013e+00  0.0000000000e+00 0. 9.
        2    -1     0     0   101     0  0.0000000000e+00  0.0000000000e+00 -4.3255801475e+01  4.3255801475e+01  0.0000000000e+00 0. 9.
       21     1     1     2   102   103 -7.5226223314e+00 -3.3008737265e+00 -2.5808147630e+01  2.7084056162e+01  0.0000000000e+00 0. 9.
        2     1     1     2   103     0  7.5226223314e+00  3.3008737265e+00 -1.5804409244e+01  1.7814989914e+01  3.3000000000e-01 0. 9.
#pdf   21    2  1.643245e-02  4.325580e-01  8.218111e+00  4.841728e+00  2.655040e-01
</event>
<event>
     4  9999  1.000000e+00  7.610885e+00  7.604112e-03  2.144928e-01
       21    -1     0     0   103   102  0.0000000000e+00  0.0000000000e+00  1.9197283750e+00  1.9197283750e+00  0.0000000000e+00 0. 9.
       -1    -1     0     0     0   101  0.0000000000e+00  0.0000000000e+00 -3.0857193426e+01  3.0857193426e+01  0.0000000000e+00 0. 9.
       21     1     1     2   103   101  5.9130959349e+00 -4.7861916192e+00 -1.2024357050e+01  1.4228755961e+01  0.0000000000e+00 0. 9.
       -1     1     1     2     0   102 -5.9130959349e+00  4.7861916192e+00 -1.6913108001e+01  1.8548165839e+01  3.3000000000e-01 0. 9.
#pdf   21   -1  1.919728e-02  3.085719e-01  7.610885e+00  4.351641e+00  1.604569e-02
</event>
<event>
     4  9999  1.000000e+00  5.274177e+00  7.574538e-03  2.372677e-01
       -1    -1     0     0     0   101  0.0000000000e+00  0.0000000000e+00  3.8801527514e+00  3.8801527514e+00  0.0000000000e+00 0. 9.
       21    -1     0     0   103   102  0.0000000000e+00  0.0000000000e+00 -1.0038019772e+01  1.0038019772e+01  0.0000000000e+00 0. 9.
       -1     1     1     2     0   102  3.1029106661e+00 -4.2602829162e+00  6.3673875770e-01  5.3190601965e+00  3.3000000000e-01 0. 9.
       21     1     1     2   103   101 -3.1029106661e+00  4.2602829162e+00 -6.7946057784e+00  8.5991123270e+00  0.0000000000e+00 0. 9.
#pdf   -1   21  3.880153e-02  1.003802e-01  5.274177e+00  2.139732e-01  1.168063e+00
</event>
<event>
     4  9999  1.000000e+00  5.376619e+00  7.576083e-03  2.359536e-01
       21    -1     0     0   102   103  0.0000000000e+00  0.0000000000e+00  7.3333684616e+00  7.3333684616e+00  0.0000000000e+00 0. 9.
        1    -1     0     0   101     0  0.0000000000e+00  0.0000000000e+00 -9.2278692385e+00  9.2278692385e+00  0.0000000000e+00 0. 9.
       21     1     1     2   101   103 -2.7340914131e+00  4.6270419615e+00 -7.2115096750e+00  8.9939226682e+00  0.0000000000e+00 0. 9.
        1     1     1     2   102     0  2.7340914131e+00 -4.6270419615e+00  5.3170088982e+00  7.5673150319e+00  3.3000000000e-01 0. 9.
#pdf   21    1  7.333368e-02  9.227869e-02  5.376619e+00  1.573026e+00  4.024811e-01
</event>
<event>
     4  9999  1.000000e+00  7.850743e+00  7.606624e-03  2.127649e-01
        1    -1     0     0   101     0  0.0000000000e+00  0.0000000000e+00  7.3694264342e+00  7.3694264342e+00  0.0000000000e+00 0. 9.
       21    -1     0     0   102   103  0.0000000000e+00  0.0000000000e+00 -3.3300747921e+01  3.3300747921e+01  0.0000000000e+00 0. 9.
        1     1     1     2   102     0  4.1046189908e+00  6.6912324104e+00  4.6281396812e+00  9.1186109215e+00  3.3000000000e-01 0. 9.
       21     1     1     2   101   103 -4.1046189908e+00 -6.6912324104e+00 -3.0559461168e+01  3.1551563434e+01  0.0000000000e+00 0. 9.
#pdf    1   21  7.369426e-02  3.330075e-01  7.850743e+00  4.113061e-01  2.216036e-01
</event>
<event>
     4  9999  1.000000e+00  5.463751e+00  7.577375e-03  2.348665e-01
       21    -1     0     0   101   102  0.0000000000e+00  0.0000000000e+00  3.4957822476e+01  3.4957822476e+01  0.0000000000e+00 0. 9.
       21    -1     0     0   103   104  0.0000000000e+00  0.0000000000e+00 -2.6992162632e+00  2.6992162632e+00  0.0000000000e+00 0. 9.
       21     1     1     2   101   104 -8.2907184968e-01  5.4004828771e+00  3.1697047593e+01  3.2164505306e+01  0.0000000000e+00 0. 9.
       21     1     1     2   103   102  8.2907184968e-01 -5.4004828771e+00  5.6155862001e-01  5.4925334338e+00  0.0000000000e+00 0. 9.
#pdf   21   21  3.495782e-01  2.699216e-02  5.463751e+00  2.370319e-01  3.375731e+00
</event>
<event>
     4  9999  1.000000e+00  5.356436e+00  7.575781e-03  2.362093e-01
       21    -1     0     0   102   103  0.0000000000e+00  0.0000000000e+00  1.9926414715e+00  1.9926414715e+00  0.0000000000e+00 0. 9.
        2    -1     0     0   101     0  0.0000000000e+00  0.0000000000e+00 -1.4633131374e+01  1.4633131374e+01  0.0000000000e+00 0. 9.
       21     1     1     2   101   103 -2.9928827923e+00 -4.4362714737e+00 -5.2630962708e+00  7.5058666623e+00  0.0000000000e+00 0. 9.
        2     1     1     2   102     0  2.9928827923e+00  4.4362714737e+00 -7.3773936320e+00  9.1199061836e+00  3.3000000000e-01 0. 9.
#pdf   21    2  1.992641e-02  1.463313e-01  5.356436e+00  4.069981e+00  6.265241e-01
</event>
<event>
     4  9999  1.000000e+00  6.948410e+00  7.596747e-03  2.197298e-01
        2    -1     0     0   101     0  0.0000000000e+00  0.0000000000e+00  1.2696837943e+01  1.2696837943e+01  0.0000000000e+00 0. 9.
        2    -1     0     0   102     0  0.0000000000e+00  0.0000000000e+00 -3.9267163599e+00  3.9267163599e+00  0.0000000000e+00 0. 9.
        2     1     1     2   101     0 -3.1293111750e+00 -6.1953491729e+00  5.8614519024e+00  9.0906797441e+00  3.3000000000e-01 0. 9.
        2     1     1     2   102     0  3.1293111750e+00  6.1953491729e+00  2.9086696803e+00  7.5328745585e+00  3.3000000000e-01 0. 9.
#pdf    2    2  1.269684e-01  3.926716e-02  6.948410e+00  6.244819e-01  5.828383e-01
</event>
<event>
     4  9999  1.000000e+00  5.367248e+00  7.575943e-03  2.360721e-01
        2    -1     0     0   101     0  0.0000000000e+00  0.0000000000e+00  4.6837840623e+00  4.6837840623e+00  0.0000000000e+00 0. 9.
       21    -1     0     0   102   101  0.0000000000e+00  0.0000000000e+00 -6.9265386882e+00  6.9265386882e+00  0.0000000000e+00 0. 9.
        2     1     1     2   103     0 -2.8342880913e+00  4.5525638478e+00  8.1923214965e-01  5.4349855462e+00  3.3000000000e-01 0. 9.
       21     1     1     2   102   103  2.8342880913e+00 -4.5525638478e+00 -3.0619867756e+00  6.1753372043e+00  0.0000000000e+00 0. 9.
#pdf    2   21  4.683784e-02  6.926539e-02  5.367248e+00  5.843602e-01  1.655138e+00
</event>
<event>
     4  9999  1.000000e+00  5.709457e+00  7.580913e-03  2.319426e-01
       21    -1     0     0   102   101  0.0000000000e+00  0.0000000000e+00  4.1360835031e+00  4.1360835031e+00  0.0000000000e+00 0. 9.
       21    -1     0     0   101   103  0.0000000000e+00  0.0000000000e+00 -7.8882413731e+00  7.8882413731e+00  0.0000000000e+00 0. 9.
       21     1     1     2   104   103  4.4480525546e+00 -3.5794868316e+00 -2.0538568706e+00  6.0676375593e+00  0.0000000000e+00 0. 9.
       21     1     1     2   102   104 -4.4480525546e+00  3.5794868316e+00 -1.6983009994e+00  5.9566873168e+00  0.0000000000e+00 0. 9.
#pdf   21   21  4.136084e-02  7.888241e-02  5.709457e+00  2.514588e+00  1.467357e+00
</event>
<event>
     4  9999  1.000000e+00  6.468025e+00  7.590963e-03  2.240331e-01
       21    -1     0     0   102   101  0.0000000000e+00  0.0000000000e+00  8.4433611859e+00  8.4433611859e+00  0.0000000000e+00 0. 9.
        1    -1     0     0   101     0  0.0000000000e+00  0.0000000000e+00 -9.5541996419e+00  9.5541996419e+00  0.0000000000e+00 0. 9.
       21     1     1     2   102   103  5.8007645452e+00 -2.8562648331e+00  5.6862749414e+00  8.6105075818e+00  0.0000000000e+00 0. 9.
        1     1     1     2   103     0 -5.8007645452e+00  2.8562648331e+00 -6.7971133974e+00  9.3870532460e+00  3.3000000000e-01 0. 9.
#pdf   21    1  8.443361e-02  9.554200e-02  6.468025e+00  1.365408e+00  3.985836e-01
</event>
<event>
     4  9999  1.000000e+00  5.610265e+00  7.579503e-03  2.330988e-01
       21    -1     0     0   102   101  0.0000000000e+00  0.0000000000e+00  1.7235807081e+00  1.7235807081e+00  0.0000000000e+00 0. 9.
        1    -1     0     0   101     0  0.0000000000e+00  0.0000000000e+00 -2.0444914763e+01  2.0444914763e+01  0.0000000000e+00 0. 9.
       21     1     1     2   102   103 -5.5996637058e+00 -2.6499249770e-01 -5.7339089843e+00  8.0189878964e+00  0.0000000000e+00 0. 9.
        1     1     1     2   103     0  5.5996637058e+00  2.6499249770e-01 -1.2987425070e+01  1.4149507574e+01  3.3000000000e-01 0. 9.
#pdf   21    1  1.723581e-02  2.044491e-01  5.610265e+00  4.466573e+00  3.058657e-01
</event>
<event>
     4  9999  1.000000e+00  7.405945e+00  7.601903e-03  2.160362e-01
        5    -1     0     0   101     0  0.0000000000e+00  0.0000000000e+00  1.2757660503e+01  1.2757660503e+01  0.0000000000e+00 0. 9.
       21    -1     0     0   102   103  0.0000000000e+00  0.0000000000e+00 -4.5011996645e+00  4.5011996645e+00  0.0000000000e+00 0. 9.
        5     1     1     2   102     0 -6.3950717476e+00 -1.8707842150e+00  2.8976972906e+00  8.7082389623e+00  4.8000000000e+00 0. 9.
       21     1     1     2   101   103  6.3950717476e+00  1.8707842150e+00  5.3587635483e+00  8.5506212057e+00  0.0000000000e+00 0. 9.
#pdf    5   21  1.275766e-01  4.501200e-02  7.405945e+00  4.002636e-03  2.369600e+00
</event>
<event>
     4  9999  1.000000e+00  6.027735e+00  7.585280e-03  2.284355e-01
       21    -1     0     0   101   102  0.0000000000e+00  0.0000000000e+00  1.5355933815e+01  1.5355933815e+01  0.0000000000e+00 0. 9.
       21    -1     0     0   103   104  0.0000000000e+00  0.0000000000e+00 -2.6143281201e+00  2.6143281201e+00  0.0000000000e+00 0. 9.
       21     1     1     2   101   104  5.4338234647e+00  2.6090520167e+00  3.6021104817e+00  7.0220217739e+00  0.0000000000e+00 0. 9.
       21     1     1     2   103   102 -5.4338234647e+00 -2.6090520167e+00  9.1394952128e+00  1.0948240161e+01  0.0000000000e+00 0. 9.
#pdf   21   21  1.535593e-01  2.614328e-02  6.027735e+00  7.250695e-01  3.479099e+00
</event>
<event>
     4  9999  1.000000e+00  5.543196e+00  7.578536e-03  2.338989e-01
       -1    -1     0     0     0   101  0.0000000000e+00  0.0000000000e+00  2.0641874071e+00  2.0641874071e+00  0.0000000000e+00 0. 9.
        1    -1     0     0   101     0  0.0000000000e+00  0.0000000000e+00 -3.8606498298e+01  3.8606498298e+01  0.0000000000e+00 0. 9.
       -1     1     1     2     0   102  5.5381247616e+00 -1.1920301188e-01 -2.3421618642e+00  6.0232597015e+00  3.3000000000e-01 0. 9.
        1     1     1     2   102     0 -5.5381247616e+00  1.1920301188e-01 -3.4200149027e+01  3.4647426004e+01  3.3000000000e-01 0. 9.
#pdf   -1    1  2.064187e-02  3.860650e-01  5.543196e+00  2.902635e-01  1.318799e-01
</event>
<event>
     4  9999  1.000000e+00  5.031250e+00  7.570752e-03  2.405516e-01
       21    -1     0     0   102   103  0.0000000000e+00  0.0000000000e+00  1.0004152506e+00  1.0004152506e+00  0.0000000000e+00 0. 9.
        2    -1     0     0   101     0  0.0000000000e+00  0.0000000000e+00 -2.5310265048e+01  2.5310265048e+01  0.0000000000e+00 0. 9.
       21     1     1     2   101   103 -4.7789481151e-01  5.0030678844e+00 -1.2364961371e+01  1.3347334618e+01  0.0000000000e+00 0. 9.
        2     1     1     2   102     0  4.7789481151e-01 -5.0030678844e+00 -1.1944888426e+01  1.2963345680e+01  3.3000000000e-01 0. 9.
#pdf   21    2  1.000415e-02  2.531027e-01  5.031250e+00  5.883087e+00  5.439964e-01
</event>
<event>
     4  9999  1.000000e+00  5.171567e+00  7.572960e-03  2.386250e-01
        2    -1     0     0   101     0  0.0000000000e+00  0.0000000000e+00  9.6755066536e+00  9.6755066536e+00  0.0000000000e+00 0. 9.
       21    -1     0     0   102   101  0.0000000000e+00  0.0000000000e+00 -1.4170443187e+01  1.4170443187e+01  0.0000000000e+00 0. 9.
        2     1     1     2   103     0  5.1657556760e+00  2.2238032345e-01  8.4470129425e+00  9.9093598362e+00  3.3000000000e-01 0. 9.
       21     1     1     2   102   103 -5.1657556760e+00 -2.2238032345e-01 -1.2941949476e+01  1.3936590004e+01  0.0000000000e+00 0. 9.
#pdf    2   21  9.675507e-02  1.417044e-01  5.171567e+00  6.263518e-01  8.115405e-01
</event>
<event>
     4  9999  1.000000e+00  5.793969e+00  7.582095e-03  2.309820e-01
       21    -1     0     0   101   102  0.0000000000e+00  0.0000000000e+00  8.2739037411e+00  8.2739037411e+00  0.0000000000e+00 0. 9.
       21    -1     0     0   103   104  0.0000000000e+00  0.0000000000e+00 -2.9402363706e+01  2.9402363706e+01  0.0000000000e+00 0. 9.
       21     1     1     2   101   104  5.5222668521e+00 -1.7534660007e+00  6.9259012776e+00  9.0298495396e+00  0.0000000000e+00 0. 9.
       21     1     1     2   103   102 -5.5222668521e+00  1.7534660007e+00 -2.8054361243e+01  2.8646417907e+01  0.0000000000e+00 0. 9.
#pdf   21   21  8.273904e-02  2.940236e-01  5.793969e+00  1.401713e+00  3.176591e-01
</event>
<event>
     4  9999  1.000000e+00  7.471312e+00  7.602614e-03  2.155369e-01
       21    -1     0     0   102   101  0.0000000000e+00  0.0000000000e+00  3.5062758843e+01  3.5062758843e+01  0.0000000000e+00 0. 9.
       21    -1     0     0   104   103  0.0000000000e+00  0.0000000000e+00 -2.4540990090e+00  2.4540990090e+00  0.0000000000e+00 0. 9.
       21     1     1     2   104   101  3.4299618540e+00 -6.6374588726e+00  2.7422281579e+01  2.8421858236e+01  0.0000000000e+00 0. 9.
       21     1     1     2   102   103 -3.4299618540e+00  6.6374588726e+00  5.1863782551e+00  9.0949996157e+00  0.0000000000e+00 0. 9.
#pdf   21   21  3.506276e-01  2.454099e-02  7.471312e+00  2.017195e-01  3.698048e+00
</event>
<event>
     4  9999  1.000000e+00  7.316868e+00  7.600924e-03  2.167275e-01
        2    -1     0     0   101     0  0.0000000000e+00  0.0000000000e+00  1.9242663894e+01  1.9242663894e+01  0.0000000000e+00 0. 9.
       21    -1     0     0   102   103  0.0000000000e+00  0.0000000000e+00 -4.0492010770e+00  4.0492010770e+00  0.0000000000e+00 0. 9.
        2     1     1     2   102     0 -1.0970094234e+00  7.2315777547e+00  1.4111616285e+01  1.5897979767e+01  3.3000000000e-01 0. 9.
       21     1     1     2   101   103  1.0970094234e+00 -7.2315777547e+00  1.0818465325e+00  7.3938852045e+00  0.0000000000e+00 0. 9.
#pdf    2   21  1.924266e-01  4.049201e-02  7.316868e+00  5.844568e-01  2.574861e+00
</event>
<event>
     4  9999  1.000000e+00  6.766711e+00  7.594607e-03  2.213020e-01
       21    -1     0     0   102   101  0.0000000000e+00  0.0000000000e+00  1.3642744217e+00  1.3642744217e+00  0.0000000000e+00 0. 9.
       21    -1     0     0   104   103  0.0000000000e+00  0.0000000000e+00 -3.8156484528e+01  3.8156484528e+01  0.0000000000e+00 0. 9.
       21     1     1     2   104   101  6.5301176547e+00  1.7736802768e+00 -2.5252703359e+01  2.6143592049e+01  0.0000000000e+00 0. 9.
       21     1     1     2   102   103 -6.5301176547e+00 -1.7736802768e+00 -1.1539506748e+01  1.3377166901e+01  0.0000000000e+00 0. 9.
#pdf   21   21  1.364274e-02  3.815648e-01  6.766711e+00  5.273561e+00  1.701134e-01
</event>
<event>
     4  9999  1.000000e+00  5.292268e+00  7.574813e-03  2.370327e-01
       21    -1     0     0   102   101  0.0000000000e+00  0.0000000000e+00  1.6098625973e+00  1.6098625973e+00  0.0000000000e+00 0. 9.
        2    -1     0     0   101     0  0.0000000000e+00  0.0000000000e+00 -2.2443301861e+01  2.2443301861e+01  0.0000000000e+00 0. 9.
       21     1     1     2   102   103  4.5637323688e+00 -2.6717507678e+00 -4.7108653450e+00  7.0822424131e+00  0.0000000000e+00 0. 9.
        2     1     1     2   103     0 -4.5637323688e+00  2.6717507678e+00 -1.6122573919e+01  1.6970922045e+01  3.3000000000e-01 0. 9.
#pdf   21    2  1.609863e-02  2.244330e-01  5.292268e+00  4.600874e+00  5.719548e-01
</event>
<event>
     4  9999  1.000000e+00  6.440924e+00  7.590624e-03  2.242905e-01
        1    -1     0     0   101     0  0.0000000000e+00  0.0000000000e+00  7.0262298292e+00  7.0262298292e+00  0.0000000000e+00 0. 9.
        2    -1     0     0   102     0  0.0000000000e+00  0.0000000000e+00 -1.9049220520e+01  1.9049220520e+01  0.0000000000e+00 0. 9.
        1     1     1     2   102     0 -3.4700071426e+00  5.4231718310e+00  4.8144096040e+00  8.0460662509e+00  3.3000000000e-01 0. 9.
        2     1     1     2   101     0  3.4700071426e+00 -5.4231718310e+00 -1.6837400295e+01  1.8029384098e+01  3.3000000000e-01 0. 9.
#pdf    1    2  7.026230e-02  1.904922e-01  6.440924e+00  4.135774e-01  5.924468e-01
</event>
<event>
     4  9999  1.000000e+00  5.343700e+00  7.575590e-03  2.363715e-01
       21    -1     0     0   102   101  0.0000000000e+00  0.0000000000e+00  2.8991426525e+01  2.8991426525e+01  0.0000000000e+00 0. 9.
       21    -1     0     0   101   103  0.0000000000e+00  0.0000000000e+00 -2.4573163534e+01  2.4573163534e+01  0.0000000000e+00 0. 9.
       21     1     1     2   104   103 -5.3424104895e+00  1.1737048659e-01 -2.4030925457e+01  2.4617889918e+01  0.0000000000e+00 0. 9.
       21     1     1     2   102   104  5.3424104895e+00 -1.1737048659e-01  2.8449188448e+01  2.8946700141e+01  0.0000000000e+00 0. 9.
#pdf   21   21  2.899143e-01  2.457316e-01  5.343700e+00  3.346778e-01  4.205074e-01
</event>
<event>
     4  9999  1.000000e+00  5.115089e+00  7.572078e-03  2.393904e-01
       -4    -1     0     0     0   101  0.0000000000e+00  0.0000000000e+00  1.6557244042e+01  1.6557244042e+01  0.0000000000e+00 0. 9.
       21    -1     0     0   103   102  0.0000000000e+00  0.0000000000e+00 -1.8609554057e+00  1.8609554057e+00  0.0000000000e+00 0. 9.
       -4     1     1     2     0   102  3.0366574683e+00 -3.9995342016e+00  1.0993801684e+01  1.2179131244e+01  1.5000000000e+00 0. 9.
       21     1     1     2   103   101 -3.0366574683e+00  3.9995342016e+00  3.7024869523e+00  6.2390682030e+00  0.0000000000e+00 0. 9.
#pdf   -4   21  1.655724e-01  1.860955e-02  5.115089e+00  1.217065e-02  4.205518e+00
</event>
<event>
     4  9999  1.000000e+00  5.173766e+00  7.572994e-03  2.385954e-01
        1    -1     0     0   101     0  0.0000000000e+00  0.0000000000e+00  3.7483632170e+00  3.7483632170e+00  0.0000000000e+00 0. 9.
        1    -1     0     0   102     0  0.0000000000e+00  0.0000000000e+00 -1.7328156474e+01  1.7328156474e+01  0.0000000000e+00 0. 9.
        1     1     1     2   102     0 -4.1782865092e+00  3.0438287146e+00  1.2833895082e+00  5.3365681882e+00  3.3000000000e-01 0. 9.
        1     1     1     2   101     0  4.1782865092e+00 -3.0438287146e+00 -1.4863182765e+01  1.5739951503e+01  3.3000000000e-01 0. 9.
#pdf    1    1  3.748363e-02  1.732816e-01  5.173766e+00  4.272730e-01  3.400110e-01
</event>
<event>
     4  9999  1.000000e+00  6.430131e+00  7.590489e-03  2.243935e-01
       21    -1     0     0   102   103  0.0000000000e+00  0.0000000000e+00  6.4616252343e+00  6.4616252343e+00  0.0000000000e+00 0. 9.
        2    -1     0     0   101     0  0.0000000000e+00  0.0000000000e+00 -1.2132948207e+01  1.2132948207e+01  0.0000000000e+00 0. 9.
       21     1     1     2   101   103  5.1575075065e+00  3.8364034523e+00 -9.2240318726e+00  1.1242803881e+01  0.0000000000e+00 0. 9.
        2     1     1     2   102     0 -5.1575075065e+00 -3.8364034523e+00  3.5527089002e+00  7.3517695596e+00  3.3000000000e-01 0. 9.
#pdf   21    2  6.461625e-02  1.213295e-01  6.430131e+00  1.750730e+00  6.270601e-01
</event>
<event>
     4  9999  1.000000e+00  1.006543e+01  7.626979e-03  1.998706e-01
        1    -1     0     0   101     0  0.0000000000e+00  0.0000000000e+00  2.6791204942e+01  2.6791204942e+01  0.0000000000e+00 0. 9.
       21    -1     0     0   102   101  0.0000000000e+00  0.0000000000e+00 -9.0121057063e+00  9.0121057063e+00  0.0000000000e+00 0. 9.
        1     1     1     2   103     0  1.3682091027e+00 -9.9708560723e+00  2.2527091346e+01  2.4675265176e+01  3.3000000000e-01 0. 9.
       21     1     1     2   102   103 -1.3682091027e+00  9.9708560723e+00 -4.7479921105e+00  1.1128045473e+01  0.0000000000e+00 0. 9.
#pdf    1   21  2.679120e-01  9.012106e-02  1.006543e+01  2.182147e-01  1.235664e+00
</event>
<event>
     4  9999  1.000000e+00  5.061077e+00  7.571226e-03  2.401350e-01
       -1    -1     0     0     0   101  0.0000000000e+00  0.0000000000e+00  2.2423983381e+00  2.2423983381e+00  0.0000000000e+00 0. 9.
        2    -1     0     0   101     0  0.0000000000e+00  0.0000000000e+00 -3.0319695883e+01  3.0319695883e+01  0.0000000000e+00 0. 9.
       -1     1     1     2     0   102 -4.3310388598e+00  2.6106654744e+00 -1.1956365938e+00  5.2069106665e+00  3.3000000000e-01 0. 9.
        2     1     1     2   102     0  4.3310388598e+00 -2.6106654744e+00 -2.6881660951e+01  2.7355183555e+01  3.3000000000e-01 0. 9.
#pdf   -1    2  2.242398e-02  3.031970e-01  5.061077e+00  2.772501e-01  4.799083e-01
</event>
<event>
     4  9999  1.000000e+00  5.250578e+00  7.574177e-03  2.375761e-01
        2    -1     0     0   101     0  0.0000000000e+00  0.0000000000e+00  4.5646289129e+01  4.5646289129e+01  0.0000000000e+00 0. 9.
       21    -1     0     0   102   103  0.0000000000e+00  0.0000000000e+00 -2.6355016337e+00  2.6355016337e+00  0.0000000000e+00 0. 9.
        2     1     1     2   102     0  4.9143888513e+00 -1.8452314968e+00  4.2700516498e+01  4.3023239142e+01  3.3000000000e-01 0. 9.
       21     1     1     2   101   103 -4.9143888513e+00  1.8452314968e+00  3.1027099750e-01  5.2585516210e+00  0.0000000000e+00 0. 9.
#pdf    2   21  4.564629e-01  2.635502e-02  5.250578e+00  2.635635e-01  3.412206e+00
</event>
<event>
     4  9999  1.000000e+00  6.796851e+00  7.594965e-03  2.210368e-01
       21    -1     0     0   102   103  0.0000000000e+00  0.0000000000e+00  4.7971480591e+00  4.7971480591e+00  0.0000000000e+00 0. 9.
        2    -1     0     0   101     0  0.0000000000e+00  0.0000000000e+00 -3.6650055638e+01  3.6650055638e+01  0.0000000000e+00 0. 9.
       21     1     1     2   101   103  5.1275313307e+00  4.4599671073e+00  1.8671078055e+00  7.0476219892e+00  0.0000000000e+00 0. 9.
        2     1     1     2   102     0 -5.1275313307e+00 -4.4599671073e+00 -3.3720015385e+01  3.4399581708e+01  3.3000000000e-01 0. 9.
#pdf   21    2  4.797148e-02  3.665006e-01  6.796851e+00  2.250032e+00  3.683510e-01
</event>
<event>
     4  9999  1.000000e+00  6.090201e+00  7.586110e-03  2.277809e-01
       21    -1     0     0   102   101  0.0000000000e+00  0.0000000000e+00  1.0223435276e+01  1.0223435276e+01  0.0000000000e+00 0. 9.
        2    -1     0     0   101     0  0.0000000000e+00  0.0000000000e+00 -1.8062992775e+01  1.8062992775e+01  0.0000000000e+00 0. 9.
       21     1     1     2   102   103  4.3732840493e+00  4.2372166264e+00  8.7222702017e+00  1.0637556843e+01  0.0000000000e+00 0. 9.
        2     1     1     2   103     0 -4.3732840493e+00 -4.2372166264e+00 -1.6561827701e+01  1.7648871208e+01  3.3000000000e-01 0. 9.
#pdf   21    2  1.022344e-01  1.806299e-01  6.090201e+00  1.132355e+00  6.029276e-01
</event>
<event>
     4  9999  1.000000e+00  5.089332e+00  7.571673e-03  2.397439e-01
        2    -1     0     0   101     0  0.0000000000e+00  0.0000000000e+00  1.6236339659e+01  1.6236339659e+01  0.0000000000e+00 0. 9.
       21    -1     0     0   102   103  0.0000000000e+00  0.0000000000e+00 -1.9578869090e+00  1.9578869090e+00  0.0000000000e+00 0. 9.
        2     1     1     2   102     0 -4.6756925695e+00  1.9987140342e+00  1.1057019696e+01  1.2174709169e+01  3.3000000000e-01 0. 9.
       21     1     1     2   101   103  4.6756925695e+00 -1.9987140342e+00  3.2214330544e+00  6.0195173992e+00  0.0000000000e+00 0. 9.
#pdf    2   21  1.623634e-01  1.957887e-02  5.089332e+00  6.219066e-01  4.078393e+00
</event>
<event>
     4  9999  1.000000e+00  5.654845e+00  7.580139e-03  2.325752e-01
       21    -1     0     0   102   101  0.0000000000e+00  0.0000000000e+00  4.0023616651e+01  4.0023616651e+01  0.0000000000e+00 0. 9.
       21    -1     0     0   101   103  0.0000000000e+00  0.0000000000e+00 -1.3217798216e+00  1.3217798216e+00  0.0000000000e+00 0. 9.
       21     1     1     2   104   103 -5.3648722026e+00  1.7875721215e+00  6.3494130889e+00  8.5024887188e+00  0.0000000000e+00 0. 9.
       21     1     1     2   102   104  5.3648722026e+00 -1.7875721215e+00  3.2352423741e+01  3.2842907754e+01  0.0000000000e+00 0. 9.
#pdf   21   21  4.002362e-01  1.321780e-02  5.654845e+00  1.639935e-01  5.203830e+00
</event>
<event>
     4  9999  1.000000e+00  7.684423e+00  7.604890e-03  2.139543e-01
        1    -1     0     0   101     0  0.0000000000e+00  0.0000000000e+00  2.2431069823e+01  2.2431069823e+01  0.0000000000e+00 0. 9.
       21    -1     0     0   102   103  0.0000000000e+00  0.0000000000e+00 -3.2883263769e+00  3.2883263769e+00  0.0000000000e+00 0. 9.
        1     1     1     2   102     0  4.7422537494e+00 -6.0429968539e+00  1.5315658911e+01  1.7137242762e+01  3.3000000000e-01 0. 9.
       21     1     1     2   101   103 -4.7422537494e+00  6.0429968539e+00  3.8270845355e+00  8.5821534385e+00  0.0000000000e+00 0. 9.
#pdf    1   21  2.243107e-01  3.288326e-02  7.684423e+00  2.733085e-01  3.016669e+00
</event>
<event>
     4  9999  1.000000e+00  5.516066e+00  7.578141e-03  2.342269e-01
        1    -1     0     0   101     0  0.0000000000e+00  0.0000000000e+00  1.2052942955e+01  1.2052942955e+01  0.0000000000e+00 0. 9.
        2    -1     0     0   102     0  0.0000000000e+00  0.0000000000e+00 -1.5517916876e+01  1.5517916876e+01  0.0000000000e+00 0. 9.
        1     1     1     2   102     0 -1.0441724062e+00 -5.4146995660e+00  1.0878229254e+01  1.2200575360e+01  3.3000000000e-01 0. 9.
        2     1     1     2   101     0  1.0441724062e+00  5.4146995660e+00 -1.4343203175e+01  1.5370284471e+01  3.3000000000e-01 0. 9.
#pdf    1    2  1.205294e-01  1.551792e-01  5.516066e+00  3.836531e-01  6.221226e-01
</event>
<event>
     4  9999  1.000000e+00  5.071422e+00  7.571390e-03  2.399914e-01
       21    -1     0     0   102   103  0.0000000000e+00  0.0000000000e+00  5.6557642700e+00  5.6557642700e+00  0.0000000000e+00 0. 9.
        2    -1     0     0   101     0  0.0000000000e+00  0.0000000000e+00 -3.1880299681e+01  3.1880299681e+01  0.0000000000e+00 0. 9.
       21     1     1     2   101   103  4.5311601779e+00  2.2759928354e+00  4.2650952782e+00  6.6259032348e+00  0.0000000000e+00 0. 9.
        2     1     1     2   102     0 -4.5311601779e+00 -2.2759928354e+00 -3.0489630689e+01  3.0910160717e+01  3.3000000000e-01 0. 9.
#pdf   21    2  5.655764e-02  3.188030e-01  5.071422e+00  1.965015e+00  4.583446e-01
</event>
<event>
     4  9999  1.000000e+00  5.170893e+00  7.572949e-03  2.386340e-01
       21    -1     0     0   102   103  0.0000000000e+00  0.0000000000e+00  2.6232540357e+01  2.6232540357e+01  0.0000000000e+00 0. 9.
        2    -1     0     0   101     0  0.0000000000e+00  0.0000000000e+00 -2.8879045974e+00  2.8879045974e+00  0.0000000000e+00 0. 9.
       21     1     1     2   101   103  4.2927865472e+00 -2.8793935785e+00  2.3376110737e+01  2.3940791067e+01  0.0000000000e+00 0. 9.
        2     1     1     2   102     0 -4.2927865472e+00  2.8793935785e+00 -3.1474977416e-02  5.1796538874e+00  3.3000000000e-01 0. 9.
#pdf   21    2  2.623254e-01  2.887905e-02  5.170893e+00  3.900709e-01  5.577071e-01
</event>
<event>
     4  9999  1.000000e+00  5.700853e+00  7.580791e-03  2.320416e-01
       21    -1     0     0   101   102  0.0000000000e+00  0.0000000000e+00  1.8054348793e+00  1.8054348793e+00  0.0000000000e+00 0. 9.
       21    -1     0     0   102   103  0.0000000000e+00  0.0000000000e+00 -2.1264493535e+01  2.1264493535e+01  0.0000000000e+00 0. 9.
       21     1     1     2   101   104  3.2781436608e+00 -4.6640646443e+00 -5.2106917481e+00  7.7234081441e+00  0.0000000000e+00 0. 9.
       21     1     1     2   104   103 -3.2781436608e+00  4.6640646443e+00 -1.4248366908e+01  1.5346520270e+01  0.0000000000e+00 0. 9.
#pdf   21   21  1.805435e-02  2.126449e-01  5.700853e+00  4.356137e+00  4.960853e-01
</event>
<event>
     4  9999  1.000000e+00  5.008428e+00  7.570387e-03  2.408730e-01
       21    -1     0     0   101   102  0.0000000000e+00  0.0000000000e+00  2.1581758757e+00  2.1581758757e+00  0.0000000000e+00 0. 9.
       21    -1     0     0   103   104  0.0000000000e+00  0.0000000000e+00 -2.1089244721e+01  2.1089244721e+01  0.0000000000e+00 0. 9.
       21     1     1     2   101   104  2.5304367479e+00 -4.3221803879e+00 -1.6779197616e+00  5.2820231131e+00  0.0000000000e+00 0. 9.
       21     1     1     2   103   102 -2.5304367479e+00  4.3221803879e+00 -1.7253149084e+01  1.7965397484e+01  0.0000000000e+00 0. 9.
#pdf   21   21  2.158176e-02  2.108924e-01  5.008428e+00  3.838274e+00  5.162099e-01
</event>
<event>
     4  9999  1.000000e+00  5.419667e+00  7.576724e-03  2.354131e-01
       21    -1     0     0   102   101  0.0000000000e+00  0.0000000000e+00  1.7236516835e+00  1.7236516835e+00  0.0000000000e+00 0. 9.
       21    -1     0     0   101   103  0.0000000000e+00  0.0000000000e+00 -1.7053070475e+01  1.7053070475e+01  0.0000000000e+00 0. 9.
       21     1     1     2   104   103  1.6815420063e+00 -5.1522041069e+00 -7.4151876917e+00  9.1846501937e+00  0.0000000000e+00 0. 9.
       21     1     1     2   102   104 -1.6815420063e+00  5.1522041069e+00 -7.9142311000e+00  9.5920719650e+00  0.0000000000e+00 0. 9.
#pdf   21   21  1.723652e-02  1.705307e-01  5.419667e+00  4.443082e+00  6.538185e-01
</event>
<event>
     4  9999  1.000000e+00  6.523901e+00  7.591657e-03  2.235075e-01
       21    -1     0     0   102   101  0.0000000000e+00  0.0000000000e+00  2.5727316286e+00  2.5727316286e+00  0.0000000000e+00 0. 9.
        2    -1     0     0   101     0  0.0000000000e+00  0.0000000000e+00 -1.7269618061e+01  1.7269618061e+01  0.0000000000e+00 0. 9.
       21     1     1     2   102   103 -2.6342950226e+00 -5.9640277553e+00 -5.3104550460e+00  8.4089280011e+00  0.0000000000e+00 0. 9.
        2     1     1     2   103     0  2.6342950226e+00  5.9640277553e+00 -9.3864313860e+00  1.1433421688e+01  3.3000000000e-01 0. 9.
#pdf   21    2  2.572732e-02  1.726962e-01  6.523901e+00  3.543140e+00  6.054417e-01
</event>
<event>
     4  9999  1.000000e+00  7.479793e+00  7.602705e-03  2.154726e-01
        1    -1     0     0   101     0  0.0000000000e+00  0.0000000000e+00  2.4227972642e+00  2.4227972642e+00  0.0000000000e+00 0. 9.
        2    -1     0     0   102     0  0.0000000000e+00  0.0000000000e+00 -4.6536766047e+01  4.6536766047e+01  0.0000000000e+00 0. 9.
        1     1     1     2   102     0 -3.6807596693e+00 -6.5073250763e+00 -4.6900856462e+00  8.8317084848e+00  3.3000000000e-01 0. 9.
        2     1     1     2   101     0  3.6807596693e+00  6.5073250763e+00 -3.9423883136e+01  4.0127854826e+01  3.3000000000e-01 0. 9.
#pdf    1    2  2.422797e-02  4.653677e-01  7.479793e+00  4.538823e-01  2.298959e-01
</event>
<event>
     4  9999  1.000000e+00  5.636665e+00  7.579880e-03  2.327879e-01
       21    -1     0     0   102   103  0.0000000000e+00  0.0000000000e+00  1.6436050516e+01  1.6436050516e+01  0.0000000000e+00 0. 9.
        1    -1     0     0   101     0  0.0000000000e+00  0.0000000000e+00 -3.1321338315e+01  3.1321338315e+01  0.0000000000e+00 0. 9.
       21     1     1     2   101   103 -4.3669883730e+00 -3.5634317818e+00  1.5686622704e+01  1.6668496194e+01  0.0000000000e+00 0. 9.
        1     1     1     2   102     0  4.3669883730e+00  3.5634317818e+00 -3.0571910503e+01  3.1088892636e+01  3.3000000000e-01 0. 9.
#pdf   21    1  1.643605e-01  3.132134e-01  5.636665e+00  6.776651e-01  1.943484e-01
</event>
<event>
     4  9999  1.000000e+00  6.097660e+00  7.586209e-03  2.277034e-01
       -4    -1     0     0     0   101  0.0000000000e+00  0.0000000000e+00  1.9165624386e+00  1.9165624386e+00  0.0000000000e+00 0. 9.
       21    -1     0     0   103   102  0.0000000000e+00  0.0000000000e+00 -2.8813403379e+01  2.8813403379e+01  0.0000000000e+00 0. 9.
       -4     1     1     2     0   102  4.8658723778e+00  3.5708738069e+00 -4.8926014892e+00  7.9129895156e+00  1.5000000000e+00 0. 9.
       21     1     1     2   103   101 -4.8658723778e+00 -3.5708738069e+00 -2.2004239451e+01  2.2816976302e+01  0.0000000000e+00 0. 9.
#pdf   -4   21  1.916562e-02  2.881340e-01  6.097660e+00  9.014919e-02  3.217582e-01
</event>
<event>
     4  9999  1.000000e+00  5.618018e+00  7.579614e-03  2.330073e-01
       21    -1     0     0   102   103  0.0000000000e+00  0.0000000000e+00  1.2065836635e+00  1.2065836635e+00  0.0000000000e+00 0. 9.
        2    -1     0     0   101     0  0.0000000000e+00  0.0000000000e+00 -6.2358375559e+01  6.2358375559e+01  0.0000000000e+00 0. 9.
       21     1     1     2   101   103 -5.5301443930e+00 -9.7815552548e-01 -6.3579855864e+00  8.4831165238e+00  0.0000000000e+00 0. 9.
        2     1     1     2   102     0  5.5301443930e+00  9.7815552548e-01 -5.4793806309e+01  5.5081842699e+01  3.3000000000e-01 0. 9.
#pdf   21    2  1.206584e-02  6.235838e-01  5.618018e+00  5.464970e+00  8.827343e-02
</event>
<event>
     4  9999  1.000000e+00  5.268415e+00  7.574450e-03  2.373428e-01
       21    -1     0     0   101   102  0.0000000000e+00  0.0000000000e+00  3.5217129504e+01  3.5217129504e+01  0.0000000000e+00 0. 9.
       21    -1     0     0   102   103  0.0000000000e+00  0.0000000000e+00 -8.8981970208e+00  8.8981970208e+00  0.0000000000e+00 0. 9.
       21     1     1     2   101   104  4.4095481342e+00 -2.8830673322e+00  3.4217621490e+01  3.4620829170e+01  0.0000000000e+00 0. 9.
       21     1     1     2   104   103 -4.4095481342e+00  2.8830673322e+00 -7.8986890069e+00  9.4944973547e+00  0.0000000000e+00 0. 9.
#pdf   21   21  3.521713e-01  8.898197e-02  5.268415e+00  2.378019e-01  1.315035e+00
</event>
<event>
     4  9999  1.000000e+00  6.409245e+00  7.590226e-03  2.245936e-01
        4    -1     0     0   101     0  0.0000000000e+00  0.0000000000e+00  1.8289318248e+00  1.8289318248e+00  0.0000000000e+00 0. 9.
       21    -1     0     0   102   101  0.0000000000e+00  0.0000000000e+00 -2.6037519183e+01  2.6037519183e+01  0.0000000000e+00 0. 9.
        4     1     1     2   103     0  2.2647108784e+00 -5.9147946602e+00 -7.1438410887e+00  9.6642732130e+00  1.5000000000e+00 0. 9.
       21     1     1     2   102   103 -2.2647108784e+00  5.9147946602e+00 -1.7064746270e+01  1.8202177795e+01  0.0000000000e+00 0. 9.
#pdf    4   21  1.828932e-02  2.603752e-01  6.409245e+00  9.534757e-02  3.680490e-01
</event>
<event>
     4  9999  1.000000e+00  5.085650e+00  7.571615e-03  2.397946e-01
       21    -1     0     0   102   101  0.0000000000e+00  0.0000000000e+00  5.7811435507e+01  5.7811435507e+01  0.0000000000e+00 0. 9.
       21    -1     0     0   103   102  0.0000000000e+00  0.0000000000e+00 -5.1590701378e-01  5.1590701378e-01  0.0000000000e+00 0. 9.
       21     1     1     2   104   101  4.8620709102e+00 -1.4913436423e+00  3.9276427448e+01  3.9604312801e+01  0.0000000000e+00 0. 9.
       21     1     1     2   103   104 -4.8620709102e+00  1.4913436423e+00  1.8019101046e+01  1.8723029720e+01  0.0000000000e+00 0. 9.
#pdf   21   21  5.781144e-01  5.159070e-03  5.085650e+00  2.496290e-02  8.154311e+00
</event>
<event>
     4  9999  1.000000e+00  5.528317e+00  7.578320e-03  2.340784e-01
       21    -1     0     0   102   101  0.0000000000e+00  0.0000000000e+00  1.8992999691e+01  1.8992999691e+01  0.0000000000e+00 0. 9.
        2    -1     0     0   101     0  0.0000000000e+00  0.0000000000e+00 -2.4715861608e+01  2.4715861608e+01  0.0000000000e+00 0. 9.
       21     1     1     2   102   103  4.9538224078e+00  2.4532410345e+00  1.8268547724e+01  1.9086607451e+01  0.0000000000e+00 0. 9.
        2     1     1     2   103     0 -4.9538224078e+00 -2.4532410345e+00 -2.3991409641e+01  2.4622253848e+01  3.3000000000e-01 0. 9.
#pdf   21    2  1.899300e-01  2.471586e-01  5.528317e+00  5.736181e-01  5.442805e-01
</event>
<event>
     4  9999  1.000000e+00  5.238026e+00  7.573985e-03  2.377411e-01
       21    -1     0     0   102   101  0.0000000000e+00  0.0000000000e+00  3.8526186653e+01  3.8526186653e+01  0.0000000000e+00 0. 9.
       21    -1     0     0   104   103  0.0000000000e+00  0.0000000000e+00 -7.5555739775e-01  7.5555739775e-01  0.0000000000e+00 0. 9.
       21     1     1     2   104   101  2.1577470987e+00  4.7729489178e+00  1.4178303078e+01  1.5114932751e+01  0.0000000000e+00 0. 9.
       21     1     1     2   102   103 -2.1577470987e+00 -4.7729489178e+00  2.3592326177e+01  2.4166811299e+01  0.0000000000e+00 0. 9.
#pdf   21   21  3.852619e-01  7.555574e-03  5.238026e+00  1.918964e-01  6.852270e+00
</event>
<event>
     4  9999  1.000000e+00  5.351273e+00  7.575703e-03  2.362750e-01
       21    -1     0     0   101   102  0.0000000000e+00  0.0000000000e+00  7.4871419883e+00  7.4871419883e+00  0.0000000000e+00 0. 9.
       21    -1     0     0   103   104  0.0000000000e+00  0.0000000000e+00 -1.6115359882e+01  1.6115359882e+01  0.0000000000e+00 0. 9.
       21     1     1     2   101   104 -1.2601833893e-01 -5.3497891494e+00  5.9920186977e+00  8.0337047891e+00  0.0000000000e+00 0. 9.
       21     1     1     2   103   102  1.2601833893e-01  5.3497891494e+00 -1.4620236591e+01  1.5568797081e+01  0.0000000000e+00 0. 9.
#pdf   21   21  7.487142e-02  1.611536e-01  5.351273e+00  1.544013e+00  6.990320e-01
</event>
<event>
     4  9999  1.000000e+00  5.852896e+00  7.582910e-03  2.303252e-01
       21    -1     0     0   102   103  0.0000000000e+00  0.0000000000e+00  1.7595544720e+00  1.7595544720e+00  0.0000000000e+00 0. 9.
        2    -1     0     0   101     0  0.0000000000e+00  0.0000000000e+00 -2.5516915783e+01  2.5516915783e+01  0.0000000000e+00 0. 9.
       21     1     1     2   101   103 -5.2987529120e+00  2.4775132693e+00 -5.2357083878e+00  7.8503182575e+00  0.0000000000e+00 0. 9.
        2     1     1     2   102     0  5.2987529120e+00 -2.4775132693e+00 -1.8521652923e+01  1.9426151998e+01  3.3000000000e-01 0. 9.
#pdf   21    2  1.759554e-02  2.551692e-01  5.852896e+00  4.440220e+00  5.309353e-01
</event>
<event>
     4  9999  1.000000e+00  8.140249e+00  7.609559e-03  2.107833e-01
       21    -1     0     0   102   103  0.0000000000e+00  0.0000000000e+00  5.4327692031e+01  5.4327692031e+01  0.0000000000e+00 0. 9.
        2    -1     0     0   101     0  0.0000000000e+00  0.0000000000e+00 -2.6675238795e+01  2.6675238795e+01  0.0000000000e+00 0. 9.
       21     1     1     2   101   103 -3.9152425331e+00 -7.1366685187e+00  5.3389907481e+01  5.4006882732e+01  0.0000000000e+00 0. 9.
        2     1     1     2   102     0  3.9152425331e+00  7.1366685187e+00 -2.5737454245e+01  2.6996048093e+01  3.3000000000e-01 0. 9.
#pdf   21    2  5.432769e-01  2.667524e-01  8.140249e+00  2.718339e-02  4.942978e-01
</event>
<event>
     4  9999  1.000000e+00  5.414438e+00  7.576646e-03  2.354783e-01
       21    -1     0     0   102   101  0.0000000000e+00  0.0000000000e+00  2.0131007933e+01  2.0131007933e+01  0.0000000000e+00 0. 9.
       21    -1     0     0   104   103  0.0000000000e+00  0.0000000000e+00 -3.3249608088e+00  3.3249608088e+00  0.0000000000e+00 0. 9.
       21     1     1     2   104   101  4.7873128837e+00 -2.5293828330e+00  1.7195254226e+01  1.8027559736e+01  0.0000000000e+00 0. 9.
       21     1     1     2   102   103 -4.7873128837e+00  2.5293828330e+00 -3.8920710136e-01  5.4284090055e+00  0.0000000000e+00 0. 9.
#pdf   21   21  2.013101e-01  3.324961e-02  5.414438e+00  5.368865e-01  2.932974e+00
</event>
<event>
     4  9999  1.000000e+00  7.170125e+00  7.599285e-03  2.178949e-01
       21    -1     0     0   102   101  0.0000000000e+00  0.0000000000e+00  3.9304305117e+01  3.9304305117e+01  0.0000000000e+00 0. 9.
        2    -1     0     0   101     0  0.0000000000e+00  0.0000000000e+00 -6.0242173578e+00  6.0242173578e+00  0.0000000000e+00 0. 9.
       21     1     1     2   102   103  2.9559185846e+00 -6.5315706366e+00  3.6689195581e+01  3.7383097010e+01  0.0000000000e+00 0. 9.
        2     1     1     2   103     0 -2.9559185846e+00  6.5315706366e+00 -3.4091078227e+00  7.9454254642e+00  3.3000000000e-01 0. 9.
#pdf   21    2  3.930431e-01  6.024217e-02  7.170125e+00  1.507579e-01  6.050633e-01
</event>
<event>
     4  9999  1.000000e+00  1.051861e+01  7.630696e-03  1.977467e-01
       21    -1     0     0   102   103  0.0000000000e+00  0.0000000000e+00  3.5157350019e+00  3.5157350019e+00  0.0000000000e+00 0. 9.
        2    -1     0     0   101     0  0.0000000000e+00  0.0000000000e+00 -3.5756535261e+01  3.5756535261e+01  0.0000000000e+00 0. 9.
       21     1     1     2   101   103  9.9506073275e+00 -3.4027404555e+00 -2.2914006665e+01  2.5211999727e+01  0.0000000000e+00 0. 9.
        2     1     1     2   102     0 -9.9506073275e+00  3.4027404555e+00 -9.3267935939e+00  1.4060270536e+01  3.3000000000e-01 0. 9.
#pdf   21    2  3.515735e-02  3.575654e-01  1.051861e+01  2.895029e+00  3.518224e-01
</event>
<event>
     4  9999  1.000000e+00  6.000199e+00  7.584911e-03  2.287274e-01
       21    -1     0     0   102   101  0.0000000000e+00  0.0000000000e+00  1.0905713843e+01  1.0905713843e+01  0.0000000000e+00 0. 9.
        2    -1     0     0   101     0  0.0000000000e+00  0.0000000000e+00 -3.8554661614e+01  3.8554661614e+01  0.0000000000e+00 0. 9.
       21     1     1     2   102   103  4.2608624482e+00  4.2240718633e+00  9.8226274661e+00  1.1510071340e+01  0.0000000000e+00 0. 9.
        2     1     1     2   103     0 -4.2608624482e+00 -4.2240718633e+00 -3.7471575236e+01  3.7950304117e+01  3.3000000000e-01 0. 9.
#pdf   21    2  1.090571e-01  3.855466e-01  6.000199e+00  1.059876e+00  3.506403e-01
</event>
<event>
     4  9999  1.000000e+00  5.085367e+00  7.571610e-03  2.397986e-01
       21    -1     0     0   102   101  0.0000000000e+00  0.0000000000e+00  3.3159018576e+00  3.3159018576e+00  0.0000000000e+00 0. 9.
       21    -1     0     0   104   103  0.0000000000e+00  0.0000000000e+00 -9.5476395152e+00  9.5476395152e+00  0.0000000000e+00 0. 9.
       21     1     1     2   104   101 -3.1172925268e+00 -4.0178899943e+00 -3.6339041567e-01  5.0983335805e+00  0.0000000000e+00 0. 9.
       21     1     1     2   102   103  3.1172925268e+00  4.0178899943e+00 -5.8683472420e+00  7.7652077922e+00  0.0000000000e+00 0. 9.
#pdf   21   21  3.315902e-02  9.547640e-02  5.085367e+00  2.921623e+00  1.230702e+00
</event>
<event>
     4  9999  1.000000e+00  5.063083e+00  7.571258e-03  2.401071e-01
       21    -1     0     0   101   102  0.0000000000e+00  0.0000000000e+00  1.4798512894e+01  1.4798512894e+01  0.0000000000e+00 0. 9.
       21    -1     0     0   103   104  0.0000000000e+00  0.0000000000e+00 -3.7656706686e+00  3.7656706686e+00  0.0000000000e+00 0. 9.
       21     1     1     2   101   104  2.7130075434e-01 -5.0558089707e+00  1.2337258531e+01  1.3335769813e+01  0.0000000000e+00 0. 9.
       21     1     1     2   103   102 -2.7130075434e-01  5.0558089707e+00 -1.3044163048e+00  5.2284137503e+00  0.0000000000e+00 0. 9.
#pdf   21   21  1.479851e-01  3.765671e-02  5.063083e+00  7.755594e-01  2.673896e+00
</event>
<event>
     4  9999  1.000000e+00  5.398415e+00  7.576408e-03  2.356790e-01
       21    -1     0     0   101   102  0.0000000000e+00  0.0000000000e+00  2.4591487166e+00  2.4591487166e+00  0.0000000000e+00 0. 9.
       21    -1     0     0   103   104  0.0000000000e+00  0.0000000000e+00 -1.1866001015e+01  1.1866001015e+01  0.0000000000e+00 0. 9.
       21     1     1     2   101   104  3.8248080410e+00  3.8096890604e+00 -4.4470906924e+00  6.9942478447e+00  0.0000000000e+00 0. 9.
       21     1     1     2   103   102 -3.8248080410e+00 -3.8096890604e+00 -4.9597616061e+00  7.3309018870e+00  0.0000000000e+00 0. 9.
#pdf   21   21  2.459149e-02  1.186600e-01  5.398415e+00  3.579045e+00  9.801371e-01
</event>
<event>
     4  9999  1.000000e+00  1.010399e+01  7.627302e-03  1.996844e-01
       21    -1     0     0   101   102  0.0000000000e+00  0.0000000000e+00  7.7646064428e+00  7.7646064428e+00  0.0000000000e+00 0. 9.
       21    -1     0     0   102   103  0.0000000000e+00  0.0000000000e+00 -1.3388416719e+01  1.3388416719e+01  0.0000000000e+00 0. 9.
       21     1     1     2   101   104  1.9549706290e+00 -9.9130528241e+00 -1.3951727141e+00  1.0199854575e+01  0.0000000000e+00 0. 9.
       21     1     1     2   104   103 -1.9549706290e+00  9.9130528241e+00 -4.2286375621e+00  1.0953168587e+01  0.0000000000e+00 0. 9.
#pdf   21   21  7.764606e-02  1.338842e-01  1.010399e+01  1.439357e+00  7.903410e-01
</event>
<event>
     4  9999  1.000000e+00  8.163858e+00  7.609794e-03  2.106264e-01
       21    -1     0     0   102   103  0.0000000000e+00  0.0000000000e+00  2.1424885943e+01  2.1424885943e+01  0.0000000000e+00 0. 9.
        2    -1     0     0   101     0  0.0000000000e+00  0.0000000000e+00 -5.5984851763e+01  5.5984851763e+01  0.0000000000e+00 0. 9.
       21     1     1     2   101   103  4.6526517513e+00 -6.7080829954e+00  2.0333737669e+01  2.1911331164e+01  0.0000000000e+00 0. 9.
        2     1     1     2   102     0 -4.6526517513e+00  6.7080829954e+00 -5.4893703490e+01  5.5498406541e+01  3.3000000000e-01 0. 9.
#pdf   21    2  2.142489e-01  5.598485e-01  8.163858e+00  4.512311e-01  1.260398e-01
</event>
<event>
     4  9999  1.000000e+00  5.181250e+00  7.573110e-03  2.384951e-01
        1    -1     0     0   101     0  0.0000000000e+00  0.0000000000e+00  2.9070861324e+01  2.9070861324e+01  0.0000000000e+00 0. 9.
       21    -1     0     0   102   101  0.0000000000e+00  0.0000000000e+00 -2.6223533419e+00  2.6223533419e+00  0.0000000000e+00 0. 9.
        1     1     1     2   103     0 -4.8870836245e+00  1.7153988877e+00  2.5979279595e+01  2.6492603646e+01  3.3000000000e-01 0. 9.
       21     1     1     2   102   103  4.8870836245e+00 -1.7153988877e+00  4.6922838718e-01  5.2006110195e+00  0.0000000000e+00 0. 9.
#pdf    1   21  2.907086e-01  2.622353e-02  5.181250e+00  2.197300e-01  3.417468e+00
</event>
<event>
     4  9999  1.000000e+00  6.693988e+00  7.593734e-03  2.219496e-01
       21    -1     0     0   101   102  0.0000000000e+00  0.0000000000e+00  5.6696995578e+00  5.6696995578e+00  0.0000000000e+00 0. 9.
       21    -1     0     0   102   103  0.0000000000e+00  0.0000000000e+00 -1.1882473281e+01  1.1882473281e+01  0.0000000000e+00 0. 9.
       21     1     1     2   101   104 -6.2880274917e+00  2.2956892906e+00  1.9721957559e+00  6.9784693992e+00  0.0000000000e+00 0. 9.
       21     1     1     2   104   103  6.2880274917e+00 -2.2956892906e+00 -8.1849694795e+00  1.0573703440e+01  0.0000000000e+00 0. 9.
#pdf   21   21  5.669700e-02  1.188247e-01  6.693988e+00  1.959424e+00  9.553183e-01
</event>
<event>
     4  9999  1.000000e+00  5.871276e+00  7.583162e-03  2.301224e-01
       21    -1     0     0   102   101  0.0000000000e+00  0.0000000000e+00  2.8319384616e+00  2.8319384616e+00  0.0000000000e+00 0. 9.
        2    -1     0     0   101     0  0.0000000000e+00  0.0000000000e+00 -3.8190740607e+01  3.8190740607e+01  0.0000000000e+00 0. 9.
       21     1     1     2   102   103  5.8064974444e+00  8.5971890644e-01 -7.4934254652e-01  5.9174355444e+00  0.0000000000e+00 0. 9.
        2     1     1     2   103     0 -5.8064974444e+00 -8.5971890644e-01 -3.4609459599e+01  3.5105243524e+01  3.3000000000e-01 0. 9.
#pdf   21    2  2.831938e-02  3.819074e-01  5.871276e+00  3.291334e+00  3.574080e-01
</event>
<event>
     4  9999  1.000000e+00  6.646890e+00  7.593164e-03  2.223749e-01
       21    -1     0     0   102   101  0.0000000000e+00  0.0000000000e+00  6.2230510609e+00  6.2230510609e+00  0.0000000000e+00 0. 9.
       21    -1     0     0   104   103  0.0000000000e+00  0.0000000000e+00 -1.7851978701e+01  1.7851978701e+01  0.0000000000e+00 0. 9.
       21     1     1     2   104   101 -5.1895652489e+00 -4.1532590314e+00  3.5276685145e+00  7.5249978872e+00  0.0000000000e+00 0. 9.
       21     1     1     2   102   103  5.1895652489e+00  4.1532590314e+00 -1.5156596155e+01  1.6550031875e+01  0.0000000000e+00 0. 9.
#pdf   21   21  6.223051e-02  1.785198e-01  6.646890e+00  1.808159e+00  5.965059e-01
</event>
<event>
     4  9999  1.000000e+00  6.901303e+00  7.596197e-03  2.201313e-01
       21    -1     0     0   102   103  0.0000000000e+00  0.0000000000e+00  1.7323961872e+00  1.7323961872e+00  0.0000000000e+00 0. 9.
        2    -1     0     0   101     0  0.0000000000e+00  0.0000000000e+00 -7.0418838096e+01  7.0418838096e+01  0.0000000000e+00 0. 9.
       21     1     1     2   101   103 -3.8051768032e+00 -5.7556371947e+00 -6.2495649813e+01  6.2875376545e+01  0.0000000000e+00 0. 9.
        2     1     1     2   102     0  3.8051768032e+00  5.7556371947e+00 -6.1907920957e+00  9.2758577389e+00  3.3000000000e-01 0. 9.
#pdf   21    2  1.732396e-02  7.041884e-01  6.901303e+00  4.586293e+00  3.800429e-02
</event>
<event>
     4  9999  1.000000e+00  5.252891e+00  7.574213e-03  2.375458e-01
        2    -1     0     0   101     0  0.0000000000e+00  0.0000000000e+00  2.8947579302e+00  2.8947579302e+00  0.0000000000e+00 0. 9.
        2    -1     0     0   102     0  0.0000000000e+00  0.0000000000e+00 -9.9333240796e+00  9.9333240796e+00  0.0000000000e+00 0. 9.
        2     1     1     2   101     0  3.7027963526e+00 -3.7118278436e+00 -2.2325109821e+00  5.7080094652e+00  3.3000000000e-01 0. 9.
        2     1     1     2   102     0 -3.7027963526e+00  3.7118278436e+00 -4.8060551672e+00  7.1200725446e+00  3.3000000000e-01 0. 9.
#pdf    2    2  2.894758e-02  9.933324e-02  5.252891e+00  5.585858e-01  6.272344e-01
</event>
<event>
     4  9999  1.000000e+00  5.878416e+00  7.583260e-03  2.300439e-01
        1    -1     0     0   101     0  0.0000000000e+00  0.0000000000e+00  4.1451407078e+01  4.1451407078e+01  0.0000000000e+00 0. 9.
       21    -1     0     0   102   103  0.0000000000e+00  0.0000000000e+00 -1.0969857649e+01  1.0969857649e+01  0.0000000000e+00 0. 9.
        1     1     1     2   102     0 -4.3934080246e+00  3.9050741377e+00  4.0435207024e+01  4.0861552897e+01  3.3000000000e-01 0. 9.
       21     1     1     2   101   103  4.3934080246e+00 -3.9050741377e+00 -9.9536575950e+00  1.1559711831e+01  0.0000000000e+00 0. 9.
#pdf    1   21  4.145141e-01  1.096986e-01  5.878416e+00  1.094776e-01  1.055511e+00
</event>
<event>
     4  9999  1.000000e+00  5.895873e+00  7.583499e-03  2.298526e-01
       -4    -1     0     0     0   101  0.0000000000e+00  0.0000000000e+00  3.3014566889e+01  3.3014566889e+01  0.0000000000e+00 0. 9.
       21    -1     0     0   103   102  0.0000000000e+00  0.0000000000e+00 -1.0615905390e+00  1.0615905390e+00  0.0000000000e+00 0. 9.
       -4     1     1     2     0   102  4.4360313839e+00  3.7384620766e+00  1.7748995072e+01  1.8733160417e+01  1.5000000000e+00 0. 9.
       21     1     1     2   103   101 -4.4360313839e+00 -3.7384620766e+00  1.4203981278e+01  1.5342997011e+01  0.0000000000e+00 0. 9.
#pdf   -4   21  3.301457e-01  1.061591e-02  5.895873e+00  4.037557e-03  5.914647e+00
</event>
<event>
     4  9999  1.000000e+00  6.777909e+00  7.594740e-03  2.212033e-01
       -5    -1     0     0     0   101  0.0000000000e+00  0.0000000000e+00  6.6100997534e+00  6.6100997534e+00  0.0000000000e+00 0. 9.
       21    -1     0     0   103   102  0.0000000000e+00  0.0000000000e+00 -7.5511402069e+00  7.5511402069e+00  0.0000000000e+00 0. 9.
       -5     1     1     2     0   102 -5.9957379021e+00  9.4599606181e-03  1.2424732871e+00  7.7802764957e+00  4.8000000000e+00 0. 9.
       21     1     1     2   103   101  5.9957379021e+00 -9.4599606181e-03 -2.1835137406e+00  6.3809634646e+00  0.0000000000e+00 0. 9.
#pdf   -5   21  6.610100e-02  7.551140e-02  6.777909e+00  7.123311e-03  1.515205e+00
</event>
<event>
     4  9999  1.000000e+00  6.173100e+00  7.587200e-03  2.269282e-01
        2    -1     0     0   101     0  0.0000000000e+00  0.0000000000e+00  2.0453311357e+01  2.0453311357e+01  0.0000000000e+00 0. 9.
       21    -1     0     0   102   101  0.0000000000e+00  0.0000000000e+00 -5.0443632355e+00  5.0443632355e+00  0.0000000000e+00 0. 9.
        2     1     1     2   103     0 -4.7977460424e+00  3.8818407777e+00  1.7828140230e+01  1.8868983517e+01  3.3000000000e-01 0. 9.
       21     1     1     2   102   103  4.7977460424e+00 -3.8818407777e+00 -2.4191921087e+00  6.6286910751e+00  0.0000000000e+00 0. 9.
#pdf    2   21  2.045331e-01  5.044363e-02  6.173100e+00  5.822893e-01  2.159103e+00
</event>
<event>
     4  9999  1.000000e+00  5.734153e+00  7.581260e-03  2.316596e-01
       21    -1     0     0   102   101  0.0000000000e+00  0.0000000000e+00  2.3073492048e+00  2.3073492048e+00  0.0000000000e+00 0. 9.
       21    -1     0     0   104   103  0.0000000000e+00  0.0000000000e+00 -2.2840651687e+01  2.2840651687e+01  0.0000000000e+00 0. 9.
       21     1     1     2   104   101 -1.1907448476e+00  5.6091568220e+00 -2.5554212686e+00  6.2777935141e+00  0.0000000000e+00 0. 9.
       21     1     1     2   102   103  1.1907448476e+00 -5.6091568220e+00 -1.7977881214e+01  1.8870207378e+01  0.0000000000e+00 0. 9.
#pdf   21   21  2.307349e-02  2.284065e-01  5.734153e+00  3.751304e+00  4.527702e-01
</event>
<event>
     4  9999  1.000000e+00  6.109738e+00  7.586368e-03  2.275783e-01
       21    -1     0     0   102   101  0.0000000000e+00  0.0000000000e+00  3.7064972405e+00  3.7064972405e+00  0.0000000000e+00 0. 9.
       21    -1     0     0   104   103  0.0000000000e+00  0.0000000000e+00 -1.1949384059e+01  1.1949384059e+01  0.0000000000e+00 0. 9.
       21     1     1     2   104   101  2.7595016626e+00 -5.4510594912e+00 -7.2248815337e+00  9.4619137693e+00  0.0000000000e+00 0. 9.
       21     1     1     2   102   103 -2.7595016626e+00  5.4510594912e+00 -1.0180052846e+00  6.1939675299e+00  0.0000000000e+00 0. 9.
#pdf   21   21  3.706497e-02  1.194938e-01  6.109738e+00  2.734374e+00  9.593831e-01
</event>
<event>
     4  9999  1.000000e+00  6.991034e+00  7.597241e-03  2.193701e-01
        1    -1     0     0   101     0  0.0000000000e+00  0.0000000000e+00  1.4139222018e+01  1.4139222018e+01  0.0000000000e+00 0. 9.
        2    -1     0     0   102     0  0.0000000000e+00  0.0000000000e+00 -8.9344271372e+00  8.9344271372e+00  0.0000000000e+00 0. 9.
        1     1     1     2   102     0  3.6462809836e+00  5.9612971820e+00  1.1631970626e+01  1.3573653515e+01  3.3000000000e-01 0. 9.
        2     1     1     2   101     0 -3.6462809836e+00 -5.9612971820e+00 -6.4271757451e+00  9.4999956401e+00  3.3000000000e-01 0. 9.
#pdf    1    2  1.413922e-01  8.934427e-02  6.991034e+00  3.608034e-01  6.222880e-01
</event>
<event>
     4  9999  1.000000e+00  6.203725e+00  7.587599e-03  2.266176e-01
       21    -1     0     0   102   103  0.0000000000e+00  0.0000000000e+00  2.1288757477e+00  2.1288757477e+00  0.0000000000e+00 0. 9.
        2    -1     0     0   101     0  0.0000000000e+00  0.0000000000e+00 -2.4160116740e+01  2.4160116740e+01  0.0000000000e+00 0. 9.
       21     1     1     2   101   103 -2.3184389546e+00  5.7506793404e+00 -4.4182731088e+00  7.6135805852e+00  0.0000000000e+00 0. 9.
        2     1     1     2   102     0  2.3184389546e+00 -5.7506793404e+00 -1.7612967884e+01  1.8675411903e+01  3.3000000000e-01 0. 9.
#pdf   21    2  2.128876e-02  2.416012e-01  6.203725e+00  3.982975e+00  5.430864e-01
</event>
<event>
     4  9999  1.000000e+00  5.834467e+00  7.582656e-03  2.305295e-01
       21    -1     0     0   102   103  0.0000000000e+00  0.0000000000e+00  2.2695786318e+00  2.2695786318e+00  0.0000000000e+00 0. 9.
        1    -1     0     0   101     0  0.0000000000e+00  0.0000000000e+00 -1.5540964352e+01  1.5540964352e+01  0.0000000000e+00 0. 9.
       21     1     1     2   101   103 -5.8268588050e+00 -1.9023468351e-01 -4.9685748105e+00  7.6599744396e+00  0.0000000000e+00 0. 9.
        1     1     1     2   102     0  5.8268588050e+00  1.9023468351e-01 -8.3028109097e+00  1.0150568544e+01  3.3000000000e-01 0. 9.
#pdf   21    1  2.269579e-02  1.554096e-01  5.834467e+00  3.798036e+00  3.529846e-01
</event>
<event>
     4  9999  1.000000e+00  6.291246e+00  7.588728e-03  2.257432e-01
       21    -1     0     0   102   101  0.0000000000e+00  0.0000000000e+00  7.1651764212e+00  7.1651764212e+00  0.0000000000e+00 0. 9.
        1    -1     0     0   101     0  0.0000000000e+00  0.0000000000e+00 -1.1247157063e+01  1.1247157063e+01  0.0000000000e+00 0. 9.
       21     1     1     2   102   103 -2.9216061876e+00  5.5693136441e+00  4.5246584894e+00  7.7476171580e+00  0.0000000000e+00 0. 9.
        1     1     1     2   103     0  2.9216061876e+00 -5.5693136441e+00 -8.6066391309e+00  1.0664716326e+01  3.3000000000e-01 0. 9.
#pdf   21    1  7.165176e-02  1.124716e-01  6.291246e+00  1.596395e+00  3.871391e-01
</event>
<event>
     4  9999  1.000000e+00  5.748196e+00  7.581457e-03  2.314995e-01
        1    -1     0     0   101     0  0.0000000000e+00  0.0000000000e+00  4.7875389460e+00  4.7875389460e+00  0.0000000000e+00 0. 9.
       21    -1     0     0   102   103  0.0000000000e+00  0.0000000000e+00 -7.7534672722e+00  7.7534672722e+00  0.0000000000e+00 0. 9.
        1     1     1     2   102     0  1.2263316308e+00 -5.6115429864e+00  5.9285845017e-01  5.7839160695e+00  3.3000000000e-01 0. 9.
       21     1     1     2   101   103 -1.2263316308e+00  5.6115429864e+00 -3.5587867764e+00  6.7570901486e+00  0.0000000000e+00 0. 9.
#pdf    1   21  4.787539e-02  7.753467e-02  5.748196e+00  4.238875e-01  1.490545e+00
</event>
<event>
     4  9999  1.000000e+00  5.297439e+00  7.574891e-03  2.369657e-01
       21    -1     0     0   102   103  0.0000000000e+00  0.0000000000e+00  1.1383853414e+00  1.1383853414e+00  0.0000000000e+00 0. 9.
        2    -1     0     0   101     0  0.0000000000e+00  0.0000000000e+00 -2.5333107833e+01  2.5333107833e+01  0.0000000000e+00 0. 9.
       21     1     1     2   101   103  1.8876562239e+00 -4.9443561389e+00 -9.9168723945e+00  1.1240741156e+01  0.0000000000e+00 0. 9.
        2     1     1     2   102     0 -1.8876562239e+00  4.9443561389e+00 -1.4277850097e+01  1.5230752018e+01  3.3000000000e-01 0. 9.
#pdf   21    2  1.138385e-02  2.533311e-01  5.297439e+00  5.569026e+00  5.400283e-01
</event>
<event>
     4  9999  1.000000e+00  6.105101e+00  7.586307e-03  2.276263e-01
        4    -1     0     0   101     0  0.0000000000e+00  0.0000000000e+00  4.0300673809e+00  4.0300673809e+00  0.0000000000e+00 0. 9.
        2    -1     0     0   102     0  0.0000000000e+00  0.0000000000e+00 -2.2501826712e+01  2.2501826712e+01  0.0000000000e+00 0. 9.
        4     1     1     2   102     0  2.7096749789e+00  5.4264579071e+00  8.2437368537e-01  6.3022516517e+00  1.5000000000e+00 0. 9.
        2     1     1     2   101     0 -2.7096749789e+00 -5.4264579071e+00 -1.9296133017e+01  2.0229642441e+01  3.3000000000e-01 0. 9.
#pdf    4    2  4.030067e-02  2.250183e-01  6.105101e+00  5.388295e-02  5.625132e-01
</event>
<event>
     4  9999  1.000000e+00  6.758333e+00  7.594506e-03  2.213761e-01
        2    -1     0     0   101     0  0.0000000000e+00  0.0000000000e+00  5.9362789363e+01  5.9362789363e+01  0.0000000000e+00 0. 9.
       21    -1     0     0   102   103  0.0000000000e+00  0.0000000000e+00 -1.4014973244e+00  1.4014973244e+00  0.0000000000e+00 0. 9.
        2     1     1     2   102     0  8.3973308208e-01 -6.7037317443e+00  4.9387041281e+01  4.9848108464e+01  3.3000000000e-01 0. 9.
       21     1     1     2   101   103 -8.3973308208e-01  6.7037317443e+00  8.5742507575e+00  1.0916178223e+01  0.0000000000e+00 0. 9.
#pdf    2   21  5.936279e-01  1.401497e-02  6.758333e+00  1.046744e-01  5.190593e+00
</event>
<event>
     4  9999  1.000000e+00  5.481956e+00  7.577642e-03  2.346428e-01
       21    -1     0     0   102   101  0.0000000000e+00  0.0000000000e+00  7.2693313955e+00  7.2693313955e+00  0.0000000000e+00 0. 9.
       21    -1     0     0   104   103  0.0000000000e+00  0.0000000000e+00 -4.2802795862e+00  4.2802795862e+00  0.0000000000e+00 0. 9.
       21     1     1     2   104   101 -2.2083233245e+00  5.0174839122e+00  2.5618768034e+00  6.0510370574e+00  0.0000000000e+00 0. 9.
       21     1     1     2   102   103  2.2083233245e+00 -5.0174839122e+00  4.2717500583e-01  5.4985739242e+00  0.0000000000e+00 0. 9.
#pdf   21   21  7.269331e-02  4.280280e-02  5.481956e+00  1.584470e+00  2.447670e+00
</event>
<event>
     4  9999  1.000000e+00  5.074428e+00  7.571438e-03  2.399497e-01
        2    -1     0     0   101     0  0.0000000000e+00  0.0000000000e+00  9.0360710123e+00  9.0360710123e+00  0.0000000000e+00 0. 9.
       21    -1     0     0   102   103  0.0000000000e+00  0.0000000000e+00 -2.9162894479e+00  2.9162894479e+00  0.0000000000e+00 0. 9.
        2     1     1     2   102     0 -4.1525595895e+00  2.9073854695e+00  3.9653710964e+00  6.4443548432e+00  3.3000000000e-01 0. 9.
       21     1     1     2   101   103  4.1525595895e+00 -2.9073854695e+00  2.1544104680e+00  5.5080056170e+00  0.0000000000e+00 0. 9.
#pdf    2   21  9.036071e-02  2.916289e-02  5.074428e+00  6.234309e-01  3.182589e+00
</event>
<event>
     4  9999  1.000000e+00  7.879542e+00  7.606921e-03  2.125629e-01
       21    -1     0     0   101   102  0.0000000000e+00  0.0000000000e+00  1.9244010156e+01  1.9244010156e+01  0.0000000000e+00 0. 9.
       21    -1     0     0   103   104  0.0000000000e+00  0.0000000000e+00 -3.3226605342e+00  3.3226605342e+00  0.0000000000e+00 0. 9.
       21     1     1     2   101   104  2.9733840668e+00 -7.2969968810e+00  9.8820740061e+00  1.2638930451e+01  0.0000000000e+00 0. 9.
       21     1     1     2   103   102 -2.9733840668e+00  7.2969968810e+00  6.0392756160e+00  9.9277402392e+00  0.0000000000e+00 0. 9.
#pdf   21   21  1.924401e-01  3.322661e-02  7.879542e+00  5.245781e-01  2.997373e+00
</event>
<event>
     4  9999  1.000000e+00  5.352480e+00  7.575722e-03  2.362596e-01
       21    -1     0     0   102   101  0.0000000000e+00  0.0000000000e+00  2.0568029419e+00  2.0568029419e+00  0.0000000000e+00 0. 9.
       21    -1     0     0   103   102  0.0000000000e+00  0.0000000000e+00 -2.4988026267e+01  2.4988026267e+01  0.0000000000e+00 0. 9.
       21     1     1     2   104   101  3.0447014028e+00  4.4021393979e+00 -2.4696345706e+00  5.8947546873e+00  0.0000000000e+00 0. 9.
       21     1     1     2   103   104 -3.0447014028e+00 -4.4021393979e+00 -2.0461588754e+01  2.1150074521e+01  0.0000000000e+00 0. 9.
#pdf   21   21  2.056803e-02  2.498803e-01  5.352480e+00  3.992527e+00  4.113354e-01
</event>
<event>
     4  9999  1.000000e+00  5.587697e+00  7.579179e-03  2.333663e-01
       21    -1     0     0   102   103  0.0000000000e+00  0.0000000000e+00  4.6896676581e+00  4.6896676581e+00  0.0000000000e+00 0. 9.
        2    -1     0     0   101     0  0.0000000000e+00  0.0000000000e+00 -8.6747179554e+00  8.6747179554e+00  0.0000000000e+00 0. 9.
       21     1     1     2   101   103  5.3740289174e+00 -1.5167059546e+00  1.2288122977e+00  5.7175662148e+00  0.0000000000e+00 0. 9.
        2     1     1     2   102     0 -5.3740289174e+00  1.5167059546e+00 -5.2138625949e+00  7.6468193987e+00  3.3000000000e-01 0. 9.
#pdf   21    2  4.689668e-02  8.674718e-02  5.587697e+00  2.284197e+00  6.215178e-01
</event>
<event>
     4  9999  1.000000e+00  5.891819e+00  7.583443e-03  2.298969e-01
        1    -1     0     0   101     0  0.0000000000e+00  0.0000000000e+00  1.5351083457e+00  1.5351083457e+00  0.0000000000e+00 0. 9.
        2    -1     0     0   102     0  0.0000000000e+00  0.0000000000e+00 -3.6710569275e+01  3.6710569275e+01  0.0000000000e+00 0. 9.
        1     1     1     2   102     0  5.8689948252e+00 -4.4871465882e-01 -5.7489302616e+00  8.2344121986e+00  3.3000000000e-01 0. 9.
        2     1     1     2   101     0 -5.8689948252e+00  4.4871465882e-01 -2.9426530667e+01  3.0011265422e+01  3.3000000000e-01 0. 9.
#pdf    1    2  1.535108e-02  3.671057e-01  5.891819e+00  4.667194e-01  3.781513e-01
</event>
<event>
     4  9999  1.000000e+00  8.556707e+00  7.613606e-03  2.081127e-01
       21    -1     0     0   102   101  0.0000000000e+00  0.0000000000e+00  2.8839708957e+01  2.8839708957e+01  0.0000000000e+00 0. 9.
       21    -1     0     0   101   103  0.0000000000e+00  0.0000000000e+00 -8.1650957189e+00  8.1650957189e+00  0.0000000000e+00 0. 9.
       21     1     1     2   104   103 -8.2277874124e+00 -2.3496286789e+00 -5.0215933830e+00  9.9213729260e+00  0.0000000000e+00 0. 9.
       21     1     1     2   102   104  8.2277874124e+00  2.3496286789e+00  2.5696206621e+01  2.7083431750e+01  0.0000000000e+00 0. 9.
#pdf   21   21  2.883971e-01  8.165096e-02  8.556707e+00  2.839538e-01  1.384526e+00
</event>
<event>
     4  9999  1.000000e+00  5.979354e+00  7.584631e-03  2.289498e-01
        2    -1     0     0   101     0  0.0000000000e+00  0.0000000000e+00  1.5474231850e+01  1.5474231850e+01  0.0000000000e+00 0. 9.
        2    -1     0     0   102     0  0.0000000000e+00  0.0000000000e+00 -4.5203272833e+00  4.5203272833e+00  0.0000000000e+00 0. 9.
        2     1     1     2   101     0 -5.0427956629e+00 -3.2042502068e+00 -1.5076419722e+00  6.1708096553e+00  3.3000000000e-01 0. 9.
        2     1     1     2   102     0  5.0427956629e+00  3.2042502068e+00  1.2461546539e+01  1.3823749478e+01  3.3000000000e-01 0. 9.
#pdf    2    2  1.547423e-01  4.520327e-02  5.979354e+00  6.193891e-01  5.854118e-01
</event>
<event>
     4  9999  1.000000e+00  1.032536e+01  7.629131e-03  1.986355e-01
       21    -1     0     0   102   101  0.0000000000e+00  0.0000000000e+00  2.4841152822e+01  2.4841152822e+01  0.0000000000e+00 0. 9.
       21    -1     0     0   104   103  0.0000000000e+00  0.0000000000e+00 -4.3136188789e+00  4.3136188789e+00  0.0000000000e+00 0. 9.
       21     1     1     2   104   101  5.4273549490e+00  8.7839030530e+00  1.1300638840e+01  1.5307435212e+01  0.0000000000e+00 0. 9.
       21     1     1     2   102   103 -5.4273549490e+00 -8.7839030530e+00  9.2268951033e+00  1.3847336489e+01  0.0000000000e+00 0. 9.
#pdf   21   21  2.484115e-01  4.313619e-02  1.032536e+01  3.425230e-01  2.455573e+00
</event>
<event>
     4  9999  1.000000e+00  5.231723e+00  7.573888e-03  2.378241e-01
       21    -1     0     0   102   103  0.0000000000e+00  0.0000000000e+00  1.9044848237e+00  1.9044848237e+00  0.0000000000e+00 0. 9.
        2    -1     0     0   101     0  0.0000000000e+00  0.0000000000e+00 -1.7683886115e+01  1.7683886115e+01  0.0000000000e+00 0. 9.
       21     1     1     2   101   103 -2.7200635632e-01 -5.2204121654e+00 -3.6480893589e+00  6.3745781511e+00  0.0000000000e+00 0. 9.
        2     1     1     2   102     0  2.7200635632e-01  5.2204121654e+00 -1.2131311932e+01  1.3213792788e+01  3.3000000000e-01 0. 9.
#pdf   21    2  1.904485e-02  1.768389e-01  5.231723e+00  4.164826e+00  6.125924e-01
</event>
<event>
     4  9999  1.000000e+00  6.969176e+00  7.596988e-03  2.195542e-01
        1    -1     0     0   101     0  0.0000000000e+00  0.0000000000e+00  7.3483648732e+00  7.3483648732e+00  0.0000000000e+00 0. 9.
       21    -1     0     0   102   101  0.0000000000e+00  0.0000000000e+00 -2.5777211410e+01  2.5777211410e+01  0.0000000000e+00 0. 9.
        1     1     1     2   103     0 -8.4681945542e-01  6.9165271682e+00  5.0645604964e+00  8.6205640349e+00  3.3000000000e-01 0. 9.
       21     1     1     2   102   103  8.4681945542e-01 -6.9165271682e+00 -2.3493407033e+01  2.4505012248e+01  0.0000000000e+00 0. 9.
#pdf    1   21  7.348365e-02  2.577721e-01  6.969176e+00  4.116871e-01  3.638623e-01
</event>
<event>
     4  9999  1.000000e+00  6.332652e+00  7.589257e-03  2.253360e-01
       21    -1     0     0   102   101  0.0000000000e+00  0.0000000000e+00  6.1814960003e+00  6.1814960003e+00  0.0000000000e+00 0. 9.
       21    -1     0     0   104   103  0.0000000000e+00  0.0000000000e+00 -1.6452002463e+01  1.6452002463e+01  0.0000000000e+00 0. 9.
       21     1     1     2   104   101  5.8664593812e+00 -2.3847716051e+00 -1.3942497210e+01  1.5313252748e+01  0.0000000000e+00 0. 9.
       21     1     1     2   102   103 -5.8664593812e+00  2.3847716051e+00  3.6719907473e+00  7.3202457150e+00  0.0000000000e+00 0. 9.
#pdf   21   21  6.181496e-02  1.645200e-01  6.332652e+00  1.820765e+00  6.637018e-01
</event>
<event>
     4  9999  1.000000e+00  1.109452e+01  7.635199e-03  1.952356e-01
       21    -1     0     0   102   103  0.0000000000e+00  0.0000000000e+00  1.4875447959e+01  1.4875447959e+01  0.0000000000e+00 0. 9.
        1    -1     0     0   101     0  0.0000000000e+00  0.0000000000e+00 -8.2746046784e+00  8.2746046784e+00  0.0000000000e+00 0. 9.
       21     1     1     2   101   103  7.0584474520e+00 -8.5564177044e+00  3.3065276192e+00  1.1574415288e+01  0.0000000000e+00 0. 9.
        1     1     1     2   102     0 -7.0584474520e+00  8.5564177044e+00  3.2943156614e+00  1.1575637349e+01  3.3000000000e-01 0. 9.
#pdf   21    1  1.487545e-01  8.274605e-02  1.109452e+01  6.851718e-01  4.027335e-01
</event>
<event>
     4  9999  1.000000e+00  5.617853e+00  7.579612e-03  2.330092e-01
       21    -1     0     0   103   102  0.0000000000e+00  0.0000000000e+00  5.8158924630e+00  5.8158924630e+00  0.0000000000e+00 0. 9.
       -4    -1     0     0     0   101  0.0000000000e+00  0.0000000000e+00 -5.8248552006e+00  5.8248552006e+00  0.0000000000e+00 0. 9.
       21     1     1     2   103   101  2.6782951183e+00  4.8319385298e+00  1.4923154669e+00  5.7225781034e+00  0.0000000000e+00 0. 9.
       -4     1     1     2     0   102 -2.6782951183e+00 -4.8319385298e+00 -1.5012782045e+00  5.9181695603e+00  1.5000000000e+00 0. 9.
#pdf   21   -4  5.815892e-02  5.824855e-02  5.617853e+00  1.921324e+00  3.810683e-02
</event>
<event>
     4  9999  1.000000e+00  5.135618e+00  7.572400e-03  2.391106e-01
        2    -1     0     0   101     0  0.0000000000e+00  0.0000000000e+00  1.5818581246e+01  1.5818581246e+01  0.0000000000e+00 0. 9.
       21    -1     0     0   102   103  0.0000000000e+00  0.0000000000e+00 -2.8518408417e+00  2.8518408417e+00  0.0000000000e+00 0. 9.
        2     1     1     2   102     0  3.2049032540e+00  4.0089078780e+00  1.2500009180e+01  1.3516725814e+01  3.3000000000e-01 0. 9.
       21     1     1     2   101   103 -3.2049032540e+00 -4.0089078780e+00  4.6673122445e-01  5.1536962734e+00  0.0000000000e+00 0. 9.
#pdf    2   21  1.581858e-01  2.851841e-02  5.135618e+00  6.234727e-01  3.233806e+00
</event>
<event>
     4  9999  1.000000e+00  5.838030e+00  7.582705e-03  2.304899e-01
       -2    -1     0     0     0   101  0.0000000000e+00  0.0000000000e+00  1.9857663068e+01  1.9857663068e+01  0.0000000000e+00 0. 9.
       21    -1     0     0   103   102  0.0000000000e+00  0.0000000000e+00 -2.1079660964e+00  2.1079660964e+00  0.0000000000e+00 0. 9.
       -2     1     1     2     0   102  4.3807632747e+00  3.8532047094e+00  4.1498429729e+00  7.1671730899e+00  3.3000000000e-01 0. 9.
       21     1     1     2   103   101 -4.3807632747e+00 -3.8532047094e+00  1.3599853999e+01  1.4798456075e+01  0.0000000000e+00 0. 9.
#pdf   -2   21  1.985766e-01  2.107966e-02  5.838030e+00  2.992379e-02  3.977851e+00
</event>
<event>
     4  9999  1.000000e+00  8.541955e+00  7.613466e-03  2.082039e-01
       21    -1     0     0   102   103  0.0000000000e+00  0.0000000000e+00  3.9353978098e+00  3.9353978098e+00  0.0000000000e+00 0. 9.
        2    -1     0     0   101     0  0.0000000000e+00  0.0000000000e+00 -1.8578987761e+01  1.8578987761e+01  0.0000000000e+00 0. 9.
       21     1     1     2   101   103 -6.8931174954e+00 -5.0394046786e+00 -6.8081678332e+00  1.0920705910e+01  0.0000000000e+00 0. 9.
        2     1     1     2   102     0  6.8931174954e+00  5.0394046786e+00 -7.8354221182e+00  1.1593679661e+01  3.3000000000e-01 0. 9.
#pdf   21    2  3.935398e-02  1.857899e-01  8.541955e+00  2.640840e+00  5.829790e-01
</event>
<event>
     4  9999  1.000000e+00  5.522837e+00  7.578240e-03  2.341448e-01
        2    -1     0     0   101     0  0.0000000000e+00  0.0000000000e+00  1.6130536981e+00  1.6130536981e+00  0.0000000000e+00 0. 9.
       21    -1     0     0   102   101  0.0000000000e+00  0.0000000000e+00 -4.4262762235e+01  4.4262762235e+01  0.0000000000e+00 0. 9.
        2     1     1     2   103     0 -5.4466571394e+00 -9.0132849118e-01 -3.9794684082e+00  6.8134819186e+00  3.3000000000e-01 0. 9.
       21     1     1     2   102   103  5.4466571394e+00  9.0132849118e-01 -3.8670240129e+01  3.9062334015e+01  0.0000000000e+00 0. 9.
#pdf    2   21  1.613054e-02  4.426276e-01  5.522837e+00  5.501740e-01  1.162588e-01
</event>
<event>
     4  9999  1.000000e+00  5.431039e+00  7.576892e-03  2.352714e-01
       21    -1     0     0   102   103  0.0000000000e+00  0.0000000000e+00  4.2828208717e+00  4.2828208717e+00  0.0000000000e+00 0. 9.
        4    -1     0     0   101     0  0.0000000000e+00  0.0000000000e+00 -2.1060843001e+01  2.1060843001e+01  0.0000000000e+00 0. 9.
       21     1     1     2   101   103 -5.3291976772e+00 -8.5387538591e-01  1.9939408706e+00  5.7537162993e+00  0.0000000000e+00 0. 9.
        4     1     1     2   102     0  5.3291976772e+00  8.5387538591e-01 -1.8771963000e+01  1.9589947573e+01  1.5000000000e+00 0. 9.
#pdf   21    4  4.282821e-02  2.106084e-01  5.431039e+00  2.445882e+00  9.112170e-03
</event>
<event>
     4  9999  1.000000e+00  5.511604e+00  7.578076e-03  2.342810e-01
       21    -1     0     0   101   102  0.0000000000e+00  0.0000000000e+00  9.7401964737e+00  9.7401964737e+00  0.0000000000e+00 0. 9.
       21    -1     0     0   103   101  0.0000000000e+00  0.0000000000e+00 -3.3553095448e+00  3.3553095448e+00  0.0000000000e+00 0. 9.
        2     1     1     2   103     0  5.2552985826e+00  1.6304577095e+00  1.4569603875e+00  5.7015953123e+00  3.3000000000e-01 0. 9.
       -2     1     1     2     0   102 -5.2552985826e+00 -1.6304577095e+00  4.9279265414e+00  7.3939107063e+00  3.3000000000e-01 0. 9.
#pdf   21   21  9.740196e-02  3.355310e-02  5.511604e+00  1.199881e+00  2.918105e+00
</event>
<event>
     4  9999  1.000000e+00  5.015044e+00  7.570493e-03  2.407796e-01
       21    -1     0     0   102   101  0.0000000000e+00  0.0000000000e+00  2.0903783398e+01  2.0903783398e+01  0.0000000000e+00 0. 9.
       21    -1     0     0   101   103  0.0000000000e+00  0.0000000000e+00 -6.2297602194e+00  6.2297602194e+00  0.0000000000e+00 0. 9.
       21     1     1     2   104   103 -2.5211623107e+00  4.3352510829e+00 -4.8494575390e+00  6.9762382250e+00  0.0000000000e+00 0. 9.
       21     1     1     2   102   104  2.5211623107e+00 -4.3352510829e+00  1.9523480718e+01  2.0157305392e+01  0.0000000000e+00 0. 9.
#pdf   21   21  2.090378e-01  6.229760e-02  5.015044e+00  5.215740e-01  1.814210e+00
</event>
<event>
     4  9999  1.000000e+00  5.610184e+00  7.579502e-03  2.330997e-01
       21    -1     0     0   102   103  0.0000000000e+00  0.0000000000e+00  2.0487282780e+00  2.0487282780e+00  0.0000000000e+00 0. 9.
        1    -1     0     0   101     0  0.0000000000e+00  0.0000000000e+00 -1.6732661934e+01  1.6732661934e+01  0.0000000000e+00 0. 9.
       21     1     1     2   101   103 -1.7967744378e+00 -5.3099714751e+00 -4.6513400700e+00  7.2841718742e+00  0.0000000000e+00 0. 9.
        1     1     1     2   102     0  1.7967744378e+00  5.3099714751e+00 -1.0032593586e+01  1.1497218338e+01  3.3000000000e-01 0. 9.
#pdf   21    1  2.048728e-02  1.673266e-01  5.610184e+00  4.027972e+00  3.430052e-01
</event>
<event>
     4  9999  1.000000e+00  8.093822e+00  7.609095e-03  2.110938e-01
       21    -1     0     0   101   102  0.0000000000e+00  0.0000000000e+00  2.0421865241e+01  2.0421865241e+01  0.0000000000e+00 0. 9.
       21    -1     0     0   103   101  0.0000000000e+00  0.0000000000e+00 -3.2500979821e+00  3.2500979821e+00  0.0000000000e+00 0. 9.
        2     1     1     2   103     0  7.7159456725e+00 -2.4221164853e+00  7.2372758120e+00  1.0857694372e+01  3.3000000000e-01 0. 9.
       -2     1     1     2     0   102 -7.7159456725e+00  2.4221164853e+00  9.9344914469e+00  1.2814268851e+01  3.3000000000e-01 0. 9.
#pdf   21   21  2.042187e-01  3.250098e-02  8.093822e+00  4.822971e-01  3.049647e+00
</event>
<event>
     4  9999  1.000000e+00  5.358894e+00  7.575818e-03  2.361781e-01
       21    -1     0     0   102   101  0.0000000000e+00  0.0000000000e+00  3.4884372933e+00  3.4884372933e+00  0.0000000000e+00 0. 9.
       21    -1     0     0   103   102  0.0000000000e+00  0.0000000000e+00 -1.3994100929e+01  1.3994100929e+01  0.0000000000e+00 0. 9.
       21     1     1     2   104   101  9.2660139395e-01  5.2781771571e+00  3.5612879334e-01  5.3707142880e+00  0.0000000000e+00 0. 9.
       21     1     1     2   103   104 -9.2660139395e-01 -5.2781771571e+00 -1.0861792429e+01  1.2111823935e+01  0.0000000000e+00 0. 9.
#pdf   21   21  3.488437e-02  1.399410e-01  5.358894e+00  2.834251e+00  8.191796e-01
</event>
<event>
     4  9999  1.000000e+00  5.090331e+00  7.571689e-03  2.397301e-01
       21    -1     0     0   102   103  0.0000000000e+00  0.0000000000e+00  8.9888457849e-01  8.9888457849e-01  0.0000000000e+00 0. 9.
        2    -1     0     0   101     0  0.0000000000e+00  0.0000000000e+00 -2.9115732883e+01  2.9115732883e+01  0.0000000000e+00 0. 9.
       21     1     1     2   101   103  5.0843087661e+00 -8.5961525873e-02 -1.2598878051e+01  1.3586364972e+01  0.0000000000e+00 0. 9.
        2     1     1     2   102     0 -5.0843087661e+00  8.5961525873e-02 -1.5617970253e+01  1.6428252489e+01  3.3000000000e-01 0. 9.
#pdf   21    2  8.988846e-03  2.911573e-01  5.090331e+00  6.231955e+00  4.955531e-01
</event>
<event>
     4  9999  1.000000e+00  5.754557e+00  7.581546e-03  2.314272e-01
       -2    -1     0     0     0   101  0.0000000000e+00  0.0000000000e+00  3.7337176554e+01  3.7337176554e+01  0.0000000000e+00 0. 9.
        1    -1     0     0   101     0  0.0000000000e+00  0.0000000000e+00 -1.8607562942e+01  1.8607562942e+01  0.0000000000e+00 0. 9.
       -2     1     1     2     0   102  4.2355912374e+00 -3.8948045502e+00  3.6660257083e+01  3.7110552205e+01  3.3000000000e-01 0. 9.
        1     1     1     2   102     0 -4.2355912374e+00  3.8948045502e+00 -1.7930643470e+01  1.8834187290e+01  3.3000000000e-01 0. 9.
#pdf   -2    1  3.733718e-01  1.860756e-01  5.754557e+00  7.329475e-03  3.237217e-01
</event>
<event>
     4  9999  1.000000e+00  5.759521e+00  7.581615e-03  2.313709e-01
       21    -1     0     0   101   102  0.0000000000e+00  0.0000000000e+00  7.5783811511e+00  7.5783811511e+00  0.0000000000e+00 0. 9.
       21    -1     0     0   103   104  0.0000000000e+00  0.0000000000e+00 -5.0402723782e+00  5.0402723782e+00  0.0000000000e+00 0. 9.
       21     1     1     2   101   104  2.4592181142e+00 -5.2081026306e+00  3.5574790783e+00  6.7696192018e+00  0.0000000000e+00 0. 9.
       21     1     1     2   103   102 -2.4592181142e+00  5.2081026306e+00 -1.0193703054e+00  5.8490343275e+00  0.0000000000e+00 0. 9.
#pdf   21   21  7.578381e-02  5.040272e-02  5.759521e+00  1.522194e+00  2.159224e+00
</event>
<event>
     4  9999  1.000000e+00  5.472178e+00  7.577499e-03  2.347628e-01
       21    -1     0     0   101   102  0.0000000000e+00  0.0000000000e+00  1.3044912838e+01  1.3044912838e+01  0.0000000000e+00 0. 9.
       21    -1     0     0   103   104  0.0000000000e+00  0.0000000000e+00 -3.6027200164e+00  3.6027200164e+00  0.0000000000e+00 0. 9.
       21     1     1     2   101   104 -5.2560110473e+00  1.5228524718e+00  9.7350449381e+00  1.1167624265e+01  0.0000000000e+00 0. 9.
       21     1     1     2   103   102  5.2560110473e+00 -1.5228524718e+00 -2.9285211609e-01  5.4800085896e+00  0.0000000000e+00 0. 9.
#pdf   21   21  1.304491e-01  3.602720e-02  5.472178e+00  8.829867e-01  2.774871e+00
</event>
<event>
     4  9999  1.000000e+00  5.669869e+00  7.580353e-03  2.324002e-01
       21    -1     0     0   101   102  0.0000000000e+00  0.0000000000e+00  3.1498890910e+00  3.1498890910e+00  0.0000000000e+00 0. 9.
       21    -1     0     0   103   101  0.0000000000e+00  0.0000000000e+00 -1.0417060888e+01  1.0417060888e+01  0.0000000000e+00 0. 9.
        4     1     1     2   103     0 -1.5385179798e+00 -5.2469393546e+00 -2.6677566015e+00  6.2661260321e+00  1.5000000000e+00 0. 9.
       -4     1     1     2     0   102  1.5385179798e+00  5.2469393546e+00 -4.5994151958e+00  7.3008239472e+00  1.5000000000e+00 0. 9.
#pdf   21   21  3.149889e-02  1.041706e-01  5.669869e+00  3.053969e+00  1.117861e+00
</event>
<event>
     4  9999  1.000000e+00  6.085613e+00  7.586050e-03  2.278286e-01
       21    -1     0     0   102   101  0.0000000000e+00  0.0000000000e+00  3.6927148675e+01  3.6927148675e+01  0.0000000000e+00 0. 9.
       21    -1     0     0   104   103  0.0000000000e+00  0.0000000000e+00 -4.7537121325e+00  4.7537121325e+00  0.0000000000e+00 0. 9.
       21     1     1     2   104   101  5.0295017367e+00  3.4261935258e+00 -2.4252326958e+00  6.5510642971e+00  0.0000000000e+00 0. 9.
       21     1     1     2   102   103 -5.0295017367e+00 -3.4261935258e+00  3.4598669238e+01  3.5129796510e+01  0.0000000000e+00 0. 9.
#pdf   21   21  3.692715e-01  4.753712e-02  6.085613e+00  1.972142e-01  2.263466e+00
</event>
<event>
     4  9999  1.000000e+00  7.465090e+00  7.602546e-03  2.155841e-01
       -1    -1     0     0     0   101  0.0000000000e+00  0.0000000000e+00  6.9577747713e+00  6.9577747713e+00  0.0000000000e+00 0. 9.
        1    -1     0     0   102     0  0.0000000000e+00  0.0000000000e+00 -4.4109985347e+01  4.4109985347e+01  0.0000000000e+00 0. 9.
       21     1     1     2   102   103  1.7971547557e+00  7.2455372718e+00 -4.1675760699e+01  4.2339067130e+01  0.0000000000e+00 0. 9.
       21     1     1     2   103   101 -1.7971547557e+00 -7.2455372718e+00  4.5235501232e+00  8.7286929886e+00  0.0000000000e+00 0. 9.
#pdf   -1    1  6.957775e-02  4.410999e-01  7.465090e+00  1.480742e-01  8.661837e-02
</event>
<event>
     4  9999  1.000000e+00  1.181805e+01  7.640543e-03  1.923409e-01
       21    -1     0     0   102   101  0.0000000000e+00  0.0000000000e+00  1.0484190686e+01  1.0484190686e+01  0.0000000000e+00 0. 9.
        1    -1     0     0   101     0  0.0000000000e+00  0.0000000000e+00 -4.9733477944e+01  4.9733477944e+01  0.0000000000e+00 0. 9.
       21     1     1     2   102   103  1.1300634808e+01 -3.4564932238e+00  6.1377146545e+00  1.3316277020e+01  0.0000000000e+00 0. 9.
        1     1     1     2   103     0 -1.1300634808e+01  3.4564932238e+00 -4.5387001912e+01  4.6901391611e+01  3.3000000000e-01 0. 9.
#pdf   21    1  1.048419e-01  4.973348e-01  1.181805e+01  1.031477e+00  5.119367e-02
</event>
<event>
     4  9999  1.000000e+00  5.570270e+00  7.578927e-03  2.335741e-01
       21    -1     0     0   102   103  0.0000000000e+00  0.0000000000e+00  1.5984800451e+00  1.5984800451e+00  0.0000000000e+00 0. 9.
        1    -1     0     0   101     0  0.0000000000e+00  0.0000000000e+00 -1.9411549821e+01  1.9411549821e+01  0.0000000000e+00 0. 9.
       21     1     1     2   101   103 -4.7300327190e+00 -2.9326223959e+00 -8.8371678469e+00  1.0443611406e+01  0.0000000000e+00 0. 9.
        1     1     1     2   102     0  4.7300327190e+00  2.9326223959e+00 -8.9759019288e+00  1.0566418460e+01  3.3000000000e-01 0. 9.
#pdf   21    1  1.598480e-02  1.941155e-01  5.570270e+00  4.661303e+00  3.167353e-01
</event>
<event>
     4  9999  1.000000e+00  5.947363e+00  7.584199e-03  2.292934e-01
       21    -1     0     0   101   102  0.0000000000e+00  0.0000000000e+00  5.5105280021e+00  5.5105280021e+00  0.0000000000e+00 0. 9.
       21    -1     0     0   103   104  0.0000000000e+00  0.0000000000e+00 -1.0179278245e+01  1.0179278245e+01  0.0000000000e+00 0. 9.
       21     1     1     2   101   104 -5.0404909573e+00 -3.1566715626e+00  2.4337658688e+00  6.4260672848e+00  0.0000000000e+00 0. 9.
       21     1     1     2   103   102  5.0404909573e+00  3.1566715626e+00 -7.1025161117e+00  9.2637389622e+00  0.0000000000e+00 0. 9.
#pdf   21   21  5.510528e-02  1.017928e-01  5.947363e+00  2.008528e+00  1.139864e+00
</event>
<event>
     4  9999  1.000000e+00  6.110520e+00  7.586379e-03  2.275702e-01
       21    -1     0     0   102   101  0.0000000000e+00  0.0000000000e+00  1.2686948771e+00  1.2686948771e+00  0.0000000000e+00 0. 9.
        1    -1     0     0   101     0  0.0000000000e+00  0.0000000000e+00 -3.1649500597e+01  3.1649500597e+01  0.0000000000e+00 0. 9.
       21     1     1     2   102   103  4.3663344219e+00 -4.2688358135e+00 -1.0825014804e+01  1.2428547019e+01  0.0000000000e+00 0. 9.
        1     1     1     2   103     0 -4.3663344219e+00  4.2688358135e+00 -1.9555790916e+01  2.0489648456e+01  3.3000000000e-01 0. 9.
#pdf   21    1  1.268695e-02  3.164950e-01  6.110520e+00  5.400777e+00  1.882027e-01
</event>
<event>
     4  9999  1.000000e+00  5.341649e+00  7.575559e-03  2.363977e-01
       21    -1     0     0   102   101  0.0000000000e+00  0.0000000000e+00  3.7372062224e+00  3.7372062224e+00  0.0000000000e+00 0. 9.
        2    -1     0     0   101     0  0.0000000000e+00  0.0000000000e+00 -2.4055872370e+01  2.4055872370e+01  0.0000000000e+00 0. 9.
       21     1     1     2   102   103 -1.5069516523e+00 -5.1229904204e+00  1.3216832453e+00  5.5011617619e+00  0.0000000000e+00 0. 9.
        2     1     1     2   103     0  1.5069516523e+00  5.1229904204e+00 -2.1640349393e+01  2.2291916830e+01  3.3000000000e-01 0. 9.
#pdf   21    2  3.737206e-02  2.405587e-01  5.341649e+00  2.699035e+00  5.541145e-01
</event>
<event>
     4  9999  1.000000e+00  5.455976e+00  7.577261e-03  2.349624e-01
       21    -1     0     0   101   102  0.0000000000e+00  0.0000000000e+00  6.5406574817e+00  6.5406574817e+00  0.0000000000e+00 0. 9.
       21    -1     0     0   103   104  0.0000000000e+00  0.0000000000e+00 -4.5564338211e+00  4.5564338211e+00  0.0000000000e+00 0. 9.
       21     1     1     2   101   104  5.4239695273e+00  5.9011004666e-01  1.1806157516e+00  5.5822512352e+00  0.0000000000e+00 0. 9.
       21     1     1     2   103   102 -5.4239695273e+00 -5.9011004666e-01  8.0360790902e-01  5.5148400676e+00  0.0000000000e+00 0. 9.
#pdf   21   21  6.540657e-02  4.556434e-02  5.455976e+00  1.739655e+00  2.334280e+00
</event>
<event>
     4  9999  1.000000e+00  5.946792e+00  7.584191e-03  2.292995e-01
       21    -1     0     0   101   102  0.0000000000e+00  0.0000000000e+00  1.0443191100e+01  1.0443191100e+01  0.0000000000e+00 0. 9.
       21    -1     0     0   103   104  0.0000000000e+00  0.0000000000e+00 -5.5991774334e+00  5.5991774334e+00  0.0000000000e+00 0. 9.
       21     1     1     2   101   104 -5.3476395290e-01 -5.9226990502e+00  7.4645521534e+00  9.5437872658e+00  0.0000000000e+00 0. 9.
       21     1     1     2   103   102  5.3476395290e-01  5.9226990502e+00 -2.6205384872e+00  6.4985812673e+00  0.0000000000e+00 0. 9.
#pdf   21   21  1.044319e-01  5.599177e-02  5.946792e+00  1.110041e+00  1.982137e+00
</event>
<event>
     4  9999  1.000000e+00  5.191405e+00  7.573267e-03  2.383592e-01
        2    -1     0     0   101     0  0.0000000000e+00  0.0000000000e+00  1.8420336616e+01  1.8420336616e+01  0.0000000000e+00 0. 9.
       21    -1     0     0   102   101  0.0000000000e+00  0.0000000000e+00 -1.8534258030e+00  1.8534258030e+00  0.0000000000e+00 0. 9.
        2     1     1     2   103     0 -1.3384085394e+00 -5.0116244780e+00  1.2938287540e+01  1.3943310288e+01  3.3000000000e-01 0. 9.
       21     1     1     2   102   103  1.3384085394e+00  5.0116244780e+00  3.6286232736e+00  6.3304521314e+00  0.0000000000e+00 0. 9.
#pdf    2   21  1.842034e-01  1.853426e-02  5.191405e+00  6.080233e-01  4.226334e+00
</event>
<event>
     4  9999  1.000000e+00  6.042389e+00  7.585475e-03  2.282810e-01
        1    -1     0     0   101     0  0.0000000000e+00  0.0000000000e+00  2.9705458340e+00  2.9705458340e+00  0.0000000000e+00 0. 9.
       21    -1     0     0   102   103  0.0000000000e+00  0.0000000000e+00 -1.3181873813e+01  1.3181873813e+01  0.0000000000e+00 0. 9.
        1     1     1     2   102     0  6.0149081426e+00  5.2971329212e-01 -3.0109167076e+00  6.7553116550e+00  3.3000000000e-01 0. 9.
       21     1     1     2   101   103 -6.0149081426e+00 -5.2971329212e-01 -7.2004112714e+00  9.3971079920e+00  0.0000000000e+00 0. 9.
#pdf    1   21  2.970546e-02  1.318187e-01  6.042389e+00  4.382547e-01  8.619237e-01
</event>
<event>
     4  9999  1.000000e+00  7.425564e+00  7.602117e-03  2.158856e-01
       21    -1     0     0   102   101  0.0000000000e+00  0.0000000000e+00  3.3431605848e+01  3.3431605848e+01  0.0000000000e+00 0. 9.
       21    -1     0     0   103   102  0.0000000000e+00  0.0000000000e+00 -1.1709722198e+01  1.1709722198e+01  0.0000000000e+00 0. 9.
       21     1     1     2   104   101  4.5575748678e+00 -5.8623807883e+00  3.1781775286e+01  3.2637711892e+01  0.0000000000e+00 0. 9.
       21     1     1     2   103   104 -4.5575748678e+00  5.8623807883e+00 -1.0059891637e+01  1.2503616154e+01  0.0000000000e+00 0. 9.
#pdf   21   21  3.343161e-01  1.170972e-01  7.425564e+00  2.254895e-01  9.593431e-01
</event>
<event>
     4  9999  1.000000e+00  5.539520e+00  7.578482e-03  2.339432e-01
       21    -1     0     0   102   101  0.0000000000e+00  0.0000000000e+00  1.8533624797e+00  1.8533624797e+00  0.0000000000e+00 0. 9.
        2    -1     0     0   101     0  0.0000000000e+00  0.0000000000e+00 -5.6106051652e+01  5.6106051652e+01  0.0000000000e+00 0. 9.
       21     1     1     2   102   103  6.3049368601e-01  5.5020628826e+00 -2.7947955272e+00  6.2033136541e+00  0.0000000000e+00 0. 9.
        2     1     1     2   103     0 -6.3049368601e-01 -5.5020628826e+00 -5.1457893645e+01  5.1756100478e+01  3.3000000000e-01 0. 9.
#pdf   21    2  1.853362e-02  5.610605e-01  5.539520e+00  4.271333e+00  1.412585e-01
</event>
<event>
     4  9999  1.000000e+00  6.469487e+00  7.590981e-03  2.240192e-01
       21    -1     0     0   101   102  0.0000000000e+00  0.0000000000e+00  4.3330257346e+00  4.3330257346e+00  0.0000000000e+00 0. 9.
       21    -1     0     0   103   104  0.0000000000e+00  0.0000000000e+00 -9.7214809479e+00  9.7214809479e+00  0.0000000000e+00 0. 9.
       21     1     1     2   101   104 -6.0989429244e+00 -2.1580433172e+00 -2.1324839260e+00  6.8118825187e+00  0.0000000000e+00 0. 9.
       21     1     1     2   103   102  6.0989429244e+00  2.1580433172e+00 -3.2559712873e+00  7.2426241638e+00  0.0000000000e+00 0. 9.
#pdf   21   21  4.333026e-02  9.721481e-02  6.469487e+00  2.436956e+00  1.186356e+00
</event>
<event>
     4  9999  1.000000e+00  6.922791e+00  7.596448e-03  2.199477e-01
       21    -1     0     0   102   101  0.0000000000e+00  0.0000000000e+00  3.4575304558e+01  3.4575304558e+01  0.0000000000e+00 0. 9.
       21    -1     0     0   101   103  0.0000000000e+00  0.0000000000e+00 -3.0635895246e+00  3.0635895246e+00  0.0000000000e+00 0. 9.
       21     1     1     2   104   103 -3.2983816297e+00  6.0865192398e+00  1.8300400048e+00  7.1605924511e+00  0.0000000000e+00 0. 9.
       21     1     1     2   102   104  3.2983816297e+00 -6.0865192398e+00  2.9681675028e+01  3.0478301631e+01  0.0000000000e+00 0. 9.
#pdf   21   21  3.457530e-01  3.063590e-02  6.922791e+00  2.162231e-01  3.156479e+00
</event>
<event>
     4  9999  1.000000e+00  5.683619e+00  7.580548e-03  2.322407e-01
        2    -1     0     0   101     0  0.0000000000e+00  0.0000000000e+00  2.9287731580e+01  2.9287731580e+01  0.0000000000e+00 0. 9.
       21    -1     0     0   102   101  0.0000000000e+00  0.0000000000e+00 -5.5170521175e+00  5.5170521175e+00  0.0000000000e+00 0. 9.
        2     1     1     2   103     0 -2.8036927602e+00  4.9428683914e+00  2.7450666427e+01  2.8034632659e+01  3.3000000000e-01 0. 9.
       21     1     1     2   102   103  2.8036927602e+00 -4.9428683914e+00 -3.6799869644e+00  6.7701510387e+00  0.0000000000e+00 0. 9.
#pdf    2   21  2.928773e-01  5.517052e-02  5.683619e+00  4.847972e-01  2.006897e+00
</event>
<event>
     4  9999  1.000000e+00  5.393214e+00  7.576331e-03  2.357444e-01
       21    -1     0     0   102   103  0.0000000000e+00  0.0000000000e+00  4.4452097240e+01  4.4452097240e+01  0.0000000000e+00 0. 9.
        1    -1     0     0   101     0  0.0000000000e+00  0.0000000000e+00 -7.1798426204e-01  7.1798426204e-01  0.0000000000e+00 0. 9.
       21     1     1     2   101   103 -5.3865166627e+00 -1.5029320560e-01  2.8566944532e+01  2.9070732183e+01  0.0000000000e+00 0. 9.
        1     1     1     2   102     0  5.3865166627e+00  1.5029320560e-01  1.5167168447e+01  1.6099349319e+01  3.3000000000e-01 0. 9.
#pdf   21    1  4.445210e-01  7.179843e-03  5.393214e+00  1.161300e-01  5.145827e-01
</event>
<event>
     4  9999  1.000000e+00  6.064091e+00  7.585764e-03  2.280532e-01
       21    -1     0     0   102   103  0.0000000000e+00  0.0000000000e+00  2.3253117860e+00  2.3253117860e+00  0.0000000000e+00 0. 9.
        1    -1     0     0   101     0  0.0000000000e+00  0.0000000000e+00 -2.6482848602e+01  2.6482848602e+01  0.0000000000e+00 0. 9.
       21     1     1     2   101   103 -4.1667176692e+00  4.4021761621e+00 -2.9351659365e+00  6.7346781787e+00  0.0000000000e+00 0. 9.
        1     1     1     2   102     0  4.1667176692e+00 -4.4021761621e+00 -2.1222370879e+01  2.2073482209e+01  3.3000000000e-01 0. 9.
#pdf   21    1  2.325312e-02  2.648285e-01  6.064091e+00  3.756221e+00  2.397135e-01
</event>
<event>
     4  9999  1.000000e+00  5.771772e+00  7.581786e-03  2.312322e-01
       21    -1     0     0   102   101  0.0000000000e+00  0.0000000000e+00  5.6504965719e+00  5.6504965719e+00  0.0000000000e+00 0. 9.
       21    -1     0     0   104   103  0.0000000000e+00  0.0000000000e+00 -5.9028496274e+00  5.9028496274e+00  0.0000000000e+00 0. 9.
       21     1     1     2   104   101 -1.8089272912e+00  5.4809789105e+00 -3.2792697098e-01  5.7810798178e+00  0.0000000000e+00 0. 9.
       21     1     1     2   102   103  1.8089272912e+00 -5.4809789105e+00  7.5573915467e-02  5.7722663815e+00  0.0000000000e+00 0. 9.
#pdf   21   21  5.650497e-02  5.902850e-02  5.771772e+00  1.967548e+00  1.896940e+00
</event>
<event>
     4  9999  1.000000e+00  5.619383e+00  7.579633e-03  2.329912e-01
       21    -1     0     0   102   101  0.0000000000e+00  0.0000000000e+00  6.5776361613e+00  6.5776361613e+00  0.0000000000e+00 0. 9.
       21    -1     0     0   104   103  0.0000000000e+00  0.0000000000e+00 -1.2541870630e+01  1.2541870630e+01  0.0000000000e+00 0. 9.
       21     1     1     2   104   101 -5.4369852328e+00  1.4200895309e+00  4.5283676742e+00  7.2168952113e+00  0.0000000000e+00 0. 9.
       21     1     1     2   102   103  5.4369852328e+00 -1.4200895309e+00 -1.0492602143e+01  1.1902611580e+01  0.0000000000e+00 0. 9.
#pdf   21   21  6.577636e-02  1.254187e-01  5.619383e+00  1.729755e+00  9.188752e-01
</event>
<event>
     4  9999  1.000000e+00  5.311245e+00  7.575100e-03  2.367875e-01
        2    -1     0     0   101     0  0.0000000000e+00  0.0000000000e+00  2.9397959700e+01  2.9397959700e+01  0.0000000000e+00 0. 9.
       21    -1     0     0   102   101  0.0000000000e+00  0.0000000000e+00 -5.3829434345e+00  5.3829434345e+00  0.0000000000e+00 0. 9.
        2     1     1     2   103     0  3.2075262768e-01 -5.3006357107e+00  2.7771277424e+01  2.8276357102e+01  3.3000000000e-01 0. 9.
       21     1     1     2   102   103 -3.2075262768e-01  5.3006357107e+00 -3.7562611592e+00  6.5045460320e+00  0.0000000000e+00 0. 9.
#pdf    2   21  2.939796e-01  5.382943e-02  5.311245e+00  4.884550e-01  2.046744e+00
</event>
<event>
     4  9999  1.000000e+00  5.670272e+00  7.580359e-03  2.323955e-01
        2    -1     0     0   101     0  0.0000000000e+00  0.0000000000e+00  9.7606736900e+00  9.7606736900e+00  0.0000000000e+00 0. 9.
       21    -1     0     0   102   101  0.0000000000e+00  0.0000000000e+00 -1.5598567968e+01  1.5598567968e+01  0.0000000000e+00 0. 9.
        2     1     1     2   103     0 -5.4886461884e+00  1.4195953510e+00  8.3400238116e+00  1.0089865466e+01  3.3000000000e-01 0. 9.
       21     1     1     2   102   103  5.4886461884e+00 -1.4195953510e+00 -1.4177918090e+01  1.5269376193e+01  0.0000000000e+00 0. 9.
#pdf    2   21  9.760674e-02  1.559857e-01  5.670272e+00  6.261424e-01  7.189660e-01
</event>
<event>
     4  9999  1.000000e+00  5.847017e+00  7.582829e-03  2.303902e-01
        2    -1     0     0   101     0  0.0000000000e+00  0.0000000000e+00  5.1591930089e+00  5.1591930089e+00  0.0000000000e+00 0. 9.
       21    -1     0     0   102   103  0.0000000000e+00  0.0000000000e+00 -6.7351623889e+00  6.7351623889e+00  0.0000000000e+00 0. 9.
        2     1     1     2   102     0 -3.2139418793e+00  4.8789998207e+00 -3.3942919917e-02  5.8518470397e+00  3.3000000000e-01 0. 9.
       21     1     1     2   101   103  3.2139418793e+00 -4.8789998207e+00 -1.5420264601e+00  6.0425083581e+00  0.0000000000e+00 0. 9.
#pdf    2   21  5.159193e-02  6.735162e-02  5.847017e+00  5.924565e-01  1.692189e+00
</event>
<event>
     4  9999  1.000000e+00  5.609628e+00  7.579494e-03  2.331063e-01
       -2    -1     0     0     0   101  0.0000000000e+00  0.0000000000e+00  5.8895817219e+00  5.8895817219e+00  0.0000000000e+00 0. 9.
       21    -1     0     0   103   102  0.0000000000e+00  0.0000000000e+00 -5.5370720276e+00  5.5370720276e+00  0.0000000000e+00 0. 9.
       -2     1     1     2     0   102 -4.9686621742e+00  2.5938018560e+00  1.2451798869e+00  5.7510681460e+00  3.3000000000e-01 0. 9.
       21     1     1     2   103   101  4.9686621742e+00 -2.5938018560e+00 -8.9267019251e-01  5.6755856035e+00  0.0000000000e+00 0. 9.
#pdf   -2   21  5.889582e-02  5.537072e-02  5.609628e+00  1.270468e-01  2.001045e+00
</event>
<event>
     4  9999  1.000000e+00  8.045335e+00  7.608608e-03  2.114211e-01
        1    -1     0     0   101     0  0.0000000000e+00  0.0000000000e+00  3.6012302000e+00  3.6012302000e+00  0.0000000000e+00 0. 9.
       21    -1     0     0   102   103  0.0000000000e+00  0.0000000000e+00 -1.8321593967e+01  1.8321593967e+01  0.0000000000e+00 0. 9.
        1     1     1     2   102     0 -8.5452916208e-01  7.9964859203e+00 -5.8533737889e+00  9.9521300170e+00  3.3000000000e-01 0. 9.
       21     1     1     2   101   103  8.5452916208e-01 -7.9964859203e+00 -8.8669899780e+00  1.1970694150e+01  0.0000000000e+00 0. 9.
#pdf    1   21  3.601230e-02  1.832159e-01  8.045335e+00  4.389699e-01  5.565624e-01
</event>
<event>
     4  9999  1.000000e+00  5.499234e+00  7.577895e-03  2.344316e-01
       21    -1     0     0   102   101  0.0000000000e+00  0.0000000000e+00  8.6453772202e+00  8.6453772202e+00  0.0000000000e+00 0. 9.
       21    -1     0     0   103   102  0.0000000000e+00  0.0000000000e+00 -3.8215160618e+00  3.8215160618e+00  0.0000000000e+00 0. 9.
       21     1     1     2   104   101  4.0298418739e-01  5.4844490241e+00  4.2255853023e+00  6.9352107755e+00  0.0000000000e+00 0. 9.
       21     1     1     2   103   104 -4.0298418739e-01 -5.4844490241e+00  5.9827585607e-01  5.5316825066e+00  0.0000000000e+00 0. 9.
#pdf   21   21  8.645377e-02  3.821516e-02  5.499234e+00  1.348615e+00  2.660926e+00
</event>
<event>
     4  9999  1.000000e+00  5.281789e+00  7.574653e-03  2.371686e-01
       21    -1     0     0   101   102  0.0000000000e+00  0.0000000000e+00  1.3863076097e+01  1.3863076097e+01  0.0000000000e+00 0. 9.
       21    -1     0     0   103   104  0.0000000000e+00  0.0000000000e+00 -7.3846261760e+00  7.3846261760e+00  0.0000000000e+00 0. 9.
       21     1     1     2   101   104  1.5537758905e+00 -5.0480768937e+00  1.2300661706e+01  1.3386694074e+01  0.0000000000e+00 0. 9.
       21     1     1     2   103   102 -1.5537758905e+00  5.0480768937e+00 -5.8222117844e+00  7.8610081990e+00  0.0000000000e+00 0. 9.
#pdf   21   21  1.386308e-01  7.384626e-02  5.281789e+00  8.293006e-01  1.563908e+00
</event>
<event>
     4  9999  1.000000e+00  5.603671e+00  7.579408e-03  2.331768e-01
       21    -1     0     0   102   101  0.0000000000e+00  0.0000000000e+00  1.2182433627e+01  1.2182433627e+01  0.0000000000e+00 0. 9.
       21    -1     0     0   104   103  0.0000000000e+00  0.0000000000e+00 -7.5371598339e+00  7.5371598339e+00  0.0000000000e+00 0. 9.
       21     1     1     2   104   101 -2.1148783310e+00 -5.1892604131e+00  1.0320735781e+01  1.1743880153e+01  0.0000000000e+00 0. 9.
       21     1     1     2   102   103  2.1148783310e+00  5.1892604131e+00 -5.6754619880e+00  7.9757133077e+00  0.0000000000e+00 0. 9.
#pdf   21   21  1.218243e-01  7.537160e-02  5.603671e+00  9.487565e-01  1.531806e+00
</event>
<event>
     4  9999  1.000000e+00  6.924260e+00  7.596466e-03  2.199351e-01
       21    -1     0     0   102   103  0.0000000000e+00  0.0000000000e+00  1.4973348597e+01  1.4973348597e+01  0.0000000000e+00 0. 9.
        1    -1     0     0   101     0  0.0000000000e+00  0.0000000000e+00 -2.4683113781e+01  2.4683113781e+01  0.0000000000e+00 0. 9.
       21     1     1     2   101   103  4.6050386646e+00  5.1702932355e+00  1.3641564788e+01  1.5298058802e+01  0.0000000000e+00 0. 9.
        1     1     1     2   102     0 -4.6050386646e+00 -5.1702932355e+00 -2.3351329972e+01  2.4358403575e+01  3.3000000000e-01 0. 9.
#pdf   21    1  1.497335e-01  2.468311e-01  6.924260e+00  7.308712e-01  2.533303e-01
</event>
<event>
     4  9999  1.000000e+00  9.045335e+00  7.618115e-03  2.052187e-01
       21    -1     0     0   102   101  0.0000000000e+00  0.0000000000e+00  1.4847902270e+01  1.4847902270e+01  0.0000000000e+00 0. 9.
        1    -1     0     0   101     0  0.0000000000e+00  0.0000000000e+00 -1.0084677360e+01  1.0084677360e+01  0.0000000000e+00 0. 9.
       21     1     1     2   102   103  6.7094538617e+00 -6.0639565522e+00  1.0775543930e+01  1.4067717910e+01  0.0000000000e+00 0. 9.
        1     1     1     2   103     0 -6.7094538617e+00  6.0639565522e+00 -6.0123190207e+00  1.0864861720e+01  3.3000000000e-01 0. 9.
#pdf   21    1  1.484790e-01  1.008468e-01  9.045335e+00  7.086655e-01  3.903973e-01
</event>
<event>
     4  9999  1.000000e+00  8.004146e+00  7.608192e-03  2.117014e-01
        2    -1     0     0   101     0  0.0000000000e+00  0.0000000000e+00  1.7475658908e+01  1.7475658908e+01  0.0000000000e+00 0. 9.
       21    -1     0     0   102   101  0.0000000000e+00  0.0000000000e+00 -4.8240908625e+00  4.8240908625e+00  0.0000000000e+00 0. 9.
        2     1     1     2   103     0 -6.5819888807e+00 -4.5499888832e+00  1.1789013793e+01  1.4251832257e+01  3.3000000000e-01 0. 9.
       21     1     1     2   102   103  6.5819888807e+00  4.5499888832e+00  8.6255425194e-01  8.0479175132e+00  0.0000000000e+00 0. 9.
#pdf    2   21  1.747566e-01  4.824091e-02  8.004146e+00  5.950957e-01  2.240463e+00
</event>
<event>
     4  9999  1.000000e+00  7.604057e+00  7.604039e-03  2.145432e-01
       21    -1     0     0   102   101  0.0000000000e+00  0.0000000000e+00  6.3584708702e+00  6.3584708702e+00  0.0000000000e+00 0. 9.
        2    -1     0     0   101     0  0.0000000000e+00  0.0000000000e+00 -1.4227520739e+01  1.4227520739e+01  0.0000000000e+00 0. 9.
       21     1     1     2   102   103 -3.1690772902e+00  6.9096914752e+00  2.2478064206e+00  7.9271382515e+00  0.0000000000e+00 0. 9.
        2     1     1     2   103     0  3.1690772902e+00 -6.9096914752e+00 -1.0116856289e+01  1.2658853358e+01  3.3000000000e-01 0. 9.
#pdf   21    2  6.358471e-02  1.422752e-01  7.604057e+00  1.766433e+00  6.170393e-01
</event>
<event>
     4  9999  1.000000e+00  9.849516e+00  7.625151e-03  2.009332e-01
       21    -1     0     0   102   103  0.0000000000e+00  0.0000000000e+00  9.5362336082e+00  9.5362336082e+00  0.0000000000e+00 0. 9.
        2    -1     0     0   101     0  0.0000000000e+00  0.0000000000e+00 -1.2015519607e+01  1.2015519607e+01  0.0000000000e+00 0. 9.
       21     1     1     2   101   103 -8.9613745564e+00  4.0817432802e+00  2.9793030215e+00  1.0288008001e+01  0.0000000000e+00 0. 9.
        2     1     1     2   102     0  8.9613745564e+00 -4.0817432802e+00 -5.4585890200e+00  1.1263745213e+01  3.3000000000e-01 0. 9.
#pdf   21    2  9.536234e-02  1.201552e-01  9.849516e+00  1.165967e+00  6.184063e-01
</event>
<event>
     4  9999  1.000000e+00  5.211025e+00  7.573570e-03  2.380980e-01
       21    -1     0     0   102   101  0.0000000000e+00  0.0000000000e+00  7.4330840088e+01  7.4330840088e+01  0.0000000000e+00 0. 9.
       21    -1     0     0   101   103  0.0000000000e+00  0.0000000000e+00 -5.7952569206e+00  5.7952569206e+00  0.0000000000e+00 0. 9.
       21     1     1     2   104   103  8.2892588203e-01 -5.1446735998e+00 -4.5119497272e+00  6.8929293416e+00  0.0000000000e+00 0. 9.
       21     1     1     2   102   104 -8.2892588203e-01  5.1446735998e+00  7.3047532895e+01  7.3233167667e+01  0.0000000000e+00 0. 9.
#pdf   21   21  7.433084e-01  5.795257e-02  5.211025e+00  1.560739e-03  1.926905e+00
</event>
<event>
     4  9999  1.000000e+00  6.865995e+00  7.595783e-03  2.204350e-01
       21    -1     0     0   102   101  0.0000000000e+00  0.0000000000e+00  1.2105436091e+01  1.2105436091e+01  0.0000000000e+00 0. 9.
       21    -1     0     0   104   103  0.0000000000e+00  0.0000000000e+00 -1.1994798734e+01  1.1994798734e+01  0.0000000000e+00 0. 9.
       21     1     1     2   104   101 -5.8224450745e+00  3.6388204747e+00  9.9579675682e+00  1.2095577670e+01  0.0000000000e+00 0. 9.
       21     1     1     2   102   103  5.8224450745e+00 -3.6388204747e+00 -9.8473302119e+00  1.2004657154e+01  0.0000000000e+00 0. 9.
#pdf   21   21  1.210544e-01  1.199480e-01  6.865995e+00  9.330486e-01  9.426285e-01
</event>
<event>
     4  9999  1.000000e+00  5.008005e+00  7.570380e-03  2.408790e-01
       21    -1     0     0   102   103  0.0000000000e+00  0.0000000000e+00  8.1880544168e+00  8.1880544168e+00  0.0000000000e+00 0. 9.
        2    -1     0     0   101     0  0.0000000000e+00  0.0000000000e+00 -3.4558875099e+00  3.4558875099e+00  0.0000000000e+00 0. 9.
       21     1     1     2   101   103  4.4159864826e+00  2.3517957318e+00  4.3249043830e+00  6.6133711298e+00  0.0000000000e+00 0. 9.
        2     1     1     2   102     0 -4.4159864826e+00 -2.3517957318e+00  4.0726252391e-01  5.0305707969e+00  3.3000000000e-01 0. 9.
#pdf   21    2  8.188054e-02  3.455888e-02  5.008005e+00  1.425817e+00  5.644455e-01
</event>
<event>
     4  9999  1.000000e+00  5.207609e+00  7.573517e-03  2.381434e-01
       21    -1     0     0   103   102  0.0000000000e+00  0.0000000000e+00  1.7178416063e+01  1.7178416063e+01  0.0000000000e+00 0. 9.
       -1    -1     0     0     0   101  0.0000000000e+00  0.0000000000e+00 -2.4700275265e+01  2.4700275265e+01  0.0000000000e+00 0. 9.
       21     1     1     2   103   101  5.1987742795e+00 -2.9741055601e-01  1.6497157448e+01  1.7299477186e+01  0.0000000000e+00 0. 9.
       -1     1     1     2     0   102 -5.1987742795e+00  2.9741055601e-01 -2.4019016649e+01  2.4579214142e+01  3.3000000000e-01 0. 9.
#pdf   21   -1  1.717842e-01  2.470028e-01  5.207609e+00  6.527255e-01  2.954814e-02
</event>
<event>
     4  9999  1.000000e+00  8.686326e+00  7.614826e-03  2.073211e-01
        2    -1     0     0   101     0  0.0000000000e+00  0.0000000000e+00  1.9208143795e+01  1.9208143795e+01  0.0000000000e+00 0. 9.
       21    -1     0     0   102   101  0.0000000000e+00  0.0000000000e+00 -4.9599707393e+00  4.9599707393e+00  0.0000000000e+00 0. 9.
        2     1     1     2   103     0  1.3554355277e+00  8.5774089785e+00  1.2636145788e+01  1.5335913101e+01  3.3000000000e-01 0. 9.
       21     1     1     2   102   103 -1.3554355277e+00 -8.5774089785e+00  1.6120272678e+00  8.8322014338e+00  0.0000000000e+00 0. 9.
#pdf    2   21  1.920814e-01  4.959971e-02  8.686326e+00  5.764183e-01  2.187351e+00
</event>
<event>
     4  9999  1.000000e+00  6.016960e+00  7.585136e-03  2.285495e-01
       21    -1     0     0   101   102  0.0000000000e+00  0.0000000000e+00  5.6094164604e+00  5.6094164604e+00  0.0000000000e+00 0. 9.
       21    -1     0     0   103   101  0.0000000000e+00  0.0000000000e+00 -6.4709134190e+00  6.4709134190e+00  0.0000000000e+00 0. 9.
       21     1     1     2   103   104  5.3924184935e+00  2.6693871682e+00 -1.2297433324e-01  6.0182163263e+00  0.0000000000e+00 0. 9.
       21     1     1     2   104   102 -5.3924184935e+00 -2.6693871682e+00 -7.3852262528e-01  6.0621135531e+00  0.0000000000e+00 0. 9.
#pdf   21   21  5.609416e-02  6.470913e-02  6.016960e+00  1.978991e+00  1.751476e+00
</event>
<event>
     4  9999  1.000000e+00  5.835384e+00  7.582668e-03  2.305193e-01
        4    -1     0     0   101     0  0.0000000000e+00  0.0000000000e+00  1.9814146071e+01  1.9814146071e+01  0.0000000000e+00 0. 9.
       21    -1     0     0   102   101  0.0000000000e+00  0.0000000000e+00 -2.1030997139e+00  2.1030997139e+00  0.0000000000e+00 0. 9.
        4     1     1     2   103     0 -3.9151267116e+00  4.2202360796e+00  1.3597774901e+01  1.4842105376e+01  1.5000000000e+00 0. 9.
       21     1     1     2   102   103  3.9151267116e+00 -4.2202360796e+00  4.1132714565e+00  7.0751404093e+00  0.0000000000e+00 0. 9.
#pdf    4   21  1.981415e-01  2.103100e-02  5.835384e+00  1.012849e-02  3.983327e+00
</event>
<event>
     4  9999  1.000000e+00  6.306205e+00  7.588919e-03  2.255956e-01
       21    -1     0     0   102   103  0.0000000000e+00  0.0000000000e+00  3.9291277221e+00  3.9291277221e+00  0.0000000000e+00 0. 9.
        1    -1     0     0   101     0  0.0000000000e+00  0.0000000000e+00 -1.3299031402e+01  1.3299031402e+01  0.0000000000e+00 0. 9.
       21     1     1     2   101   103 -3.1147825759e+00 -5.4795005819e+00 -4.7403234136e-01  6.3207201950e+00  0.0000000000e+00 0. 9.
        1     1     1     2   102     0  3.1147825759e+00  5.4795005819e+00 -8.8958713390e+00  1.0907438930e+01  3.3000000000e-01 0. 9.
#pdf   21    1  3.929128e-02  1.329903e-01  6.306205e+00  2.622952e+00  3.707548e-01
</event>
<event>
     4  9999  1.000000e+00  5.166767e+00  7.572885e-03  2.386895e-01
       21    -1     0     0   102   101  0.0000000000e+00  0.0000000000e+00  1.3749052401e+01  1.3749052401e+01  0.0000000000e+00 0. 9.
       21    -1     0     0   103   102  0.0000000000e+00  0.0000000000e+00 -3.4847415698e+00  3.4847415698e+00  0.0000000000e+00 0. 9.
       21     1     1     2   104   101  4.6866326312e+00  2.1750764310e+00  1.0866254522e+01  1.2032080878e+01  0.0000000000e+00 0. 9.
       21     1     1     2   103   104 -4.6866326312e+00 -2.1750764310e+00 -6.0194369076e-01  5.2017130935e+00  0.0000000000e+00 0. 9.
#pdf   21   21  1.374905e-01  3.484742e-02  5.166767e+00  8.392042e-01  2.827593e+00
</event>
<event>
     4  9999  1.000000e+00  7.482987e+00  7.602740e-03  2.154484e-01
       21    -1     0     0   102   103  0.0000000000e+00  0.0000000000e+00  1.5935305369e+01  1.5935305369e+01  0.0000000000e+00 0. 9.
        2    -1     0     0   101     0  0.0000000000e+00  0.0000000000e+00 -3.4103656828e+01  3.4103656828e+01  0.0000000000e+00 0. 9.
       21     1     1     2   101   103 -6.7712215246e+00 -3.1843424027e+00  1.4610589595e+01  1.6415200449e+01  0.0000000000e+00 0. 9.
        2     1     1     2   102     0  6.7712215246e+00  3.1843424027e+00 -3.2778941054e+01  3.3623761748e+01  3.3000000000e-01 0. 9.
#pdf   21    2  1.593531e-01  3.410366e-01  7.482987e+00  6.704661e-01  3.976165e-01
</event>
<event>
     4  9999  1.000000e+00  6.564829e+00  7.592162e-03  2.231270e-01
        1    -1     0     0   101     0  0.0000000000e+00  0.0000000000e+00  2.8245741709e+01  2.8245741709e+01  0.0000000000e+00 0. 9.
       21    -1     0     0   102   101  0.0000000000e+00  0.0000000000e+00 -3.9966229694e+00  3.9966229694e+00  0.0000000000e+00 0. 9.
        1     1     1     2   103     0 -6.3911577423e+00  1.4930848405e+00  2.4800135464e+01  2.5656028895e+01  3.3000000000e-01 0. 9.
       21     1     1     2   102   103  6.3911577423e+00 -1.4930848405e+00 -5.5101672394e-01  6.5863357838e+00  0.0000000000e+00 0. 9.
#pdf    1   21  2.824574e-01  3.996623e-02  6.564829e+00  2.186119e-01  2.593744e+00
</event>
<event>
     4  9999  1.000000e+00  5.418764e+00  7.576711e-03  2.354243e-01
       21    -1     0     0   101   102  0.0000000000e+00  0.0000000000e+00  4.0623520401e+00  4.0623520401e+00  0.0000000000e+00 0. 9.
       21    -1     0     0   103   101  0.0000000000e+00  0.0000000000e+00 -1.1258038085e+01  1.1258038085e+01  0.0000000000e+00 0. 9.
       21     1     1     2   103   104 -2.8500628643e+00  4.6087035221e+00 -8.1809365920e+00  9.8127840090e+00  0.0000000000e+00 0. 9.
       21     1     1     2   104   102  2.8500628643e+00 -4.6087035221e+00  9.8525054751e-01  5.5076061157e+00  0.0000000000e+00 0. 9.
#pdf   21   21  4.062352e-02  1.125804e-01  5.418764e+00  2.543344e+00  1.035684e+00
</event>
<event>
     4  9999  1.000000e+00  5.776521e+00  7.581852e-03  2.311786e-01
       21    -1     0     0   101   102  0.0000000000e+00  0.0000000000e+00  2.0157296430e+00  2.0157296430e+00  0.0000000000e+00 0. 9.
       21    -1     0     0   102   103  0.0000000000e+00  0.0000000000e+00 -2.8626288745e+01  2.8626288745e+01  0.0000000000e+00 0. 9.
        3     1     1     2   101     0 -5.2753945096e+00  2.3224643729e+00 -3.3773537753e+00  6.6992646252e+00  5.0000000000e-01 0. 9.
       -3     1     1     2     0   103  5.2753945096e+00 -2.3224643729e+00 -2.3233205327e+01  2.3942753763e+01  5.0000000000e-01 0. 9.
#pdf   21   21  2.015730e-02  2.862629e-01  5.776521e+00  4.083472e+00  3.315931e-01
</event>
<event>
     4  9999  1.000000e+00  7.298006e+00  7.600715e-03  2.168755e-01
       21    -1     0     0   102   101  0.0000000000e+00  0.0000000000e+00  2.7795003465e+01  2.7795003465e+01  0.0000000000e+00 0. 9.
        2    -1     0     0   101     0  0.0000000000e+00  0.0000000000e+00 -2.1832542583e+01  2.1832542583e+01  0.0000000000e+00 0. 9.
       21     1     1     2   102   103  7.2288319332e+00  1.0000477676e+00  2.6679872778e+01  2.7659929829e+01  0.0000000000e+00 0. 9.
        2     1     1     2   103     0 -7.2288319332e+00 -1.0000477676e+00 -2.0717411896e+01  2.1967616219e+01  3.3000000000e-01 0. 9.
#pdf   21    2  2.779500e-01  2.183254e-01  7.298006e+00  3.195211e-01  5.591139e-01
</event>
<event>
     4  9999  1.000000e+00  6.423005e+00  7.590399e-03  2.244617e-01
        2    -1     0     0   101     0  0.0000000000e+00  0.0000000000e+00  1.6572224505e+01  1.6572224505e+01  0.0000000000e+00 0. 9.
        1    -1     0     0   102     0  0.0000000000e+00  0.0000000000e+00 -9.8563293437e+00  9.8563293437e+00  0.0000000000e+00 0. 9.
        2     1     1     2   102     0 -3.2236089119e+00  5.5530018520e+00  1.4778419922e+01  1.6116391636e+01  3.3000000000e-01 0. 9.
        1     1     1     2   101     0  3.2236089119e+00 -5.5530018520e+00 -8.0625247604e+00  1.0312162213e+01  3.3000000000e-01 0. 9.
#pdf    2    1  1.657222e-01  9.856329e-02  6.423005e+00  6.106505e-01  3.966579e-01
</event>
<event>
     4  9999  1.000000e+00  5.194243e+00  7.573311e-03  2.383214e-01
       21    -1     0     0   102   101  0.0000000000e+00  0.0000000000e+00  7.8090828180e+00  7.8090828180e+00  0.0000000000e+00 0. 9.
       21    -1     0     0   104   103  0.0000000000e+00  0.0000000000e+00 -1.0064445299e+01  1.0064445299e+01  0.0000000000e+00 0. 9.
       21     1     1     2   104   101 -2.0183498606e+00 -4.7860660198e+00  6.1144900039e+00  8.0229141908e+00  0.0000000000e+00 0. 9.
       21     1     1     2   102   103  2.0183498606e+00  4.7860660198e+00 -8.3698524852e+00  9.8506139265e+00  0.0000000000e+00 0. 9.
#pdf   21   21  7.809083e-02  1.006445e-01  5.194243e+00  1.487318e+00  1.166272e+00
</event>
<event>
     4  9999  1.000000e+00  7.544859e+00  7.603406e-03  2.149830e-01
       -2    -1     0     0     0   101  0.0000000000e+00  0.0000000000e+00  8.2415644248e+00  8.2415644248e+00  0.0000000000e+00 0. 9.
        2    -1     0     0   101     0  0.0000000000e+00  0.0000000000e+00 -1.1243367252e+01  1.1243367252e+01  0.0000000000e+00 0. 9.
       -2     1     1     2     0   102  5.4813812247e+00 -5.1780744374e+00  4.5459025282e+00  8.8109094199e+00  3.3000000000e-01 0. 9.
        2     1     1     2   102     0 -5.4813812247e+00  5.1780744374e+00 -7.5477053556e+00  1.0674022257e+01  3.3000000000e-01 0. 9.
#pdf   -2    2  8.241564e-02  1.124337e-01  7.544859e+00  9.238682e-02  6.247783e-01
</event>
<event>
     4  9999  1.000000e+00  5.141648e+00  7.572494e-03  2.390288e-01
       21    -1     0     0   101   102  0.0000000000e+00  0.0000000000e+00  4.0639715538e+00  4.0639715538e+00  0.0000000000e+00 0. 9.
       21    -1     0     0   103   104  0.0000000000e+00  0.0000000000e+00 -1.1469320091e+01  1.1469320091e+01  0.0000000000e+00 0. 9.
       21     1     1     2   101   104 -4.1831456308e+00  2.9896215770e+00 -8.8123123946e+00  1.0202617031e+01  0.0000000000e+00 0. 9.
       21     1     1     2   103   102  4.1831456308e+00 -2.9896215770e+00  1.4069638575e+00  5.3306746138e+00  0.0000000000e+00 0. 9.
#pdf   21   21  4.063972e-02  1.146932e-01  5.141648e+00  2.534280e+00  1.020688e+00
</event>
<event>
     4  9999  1.000000e+00  6.076308e+00  7.585926e-03  2.279256e-01
       21    -1     0     0   101   102  0.0000000000e+00  0.0000000000e+00  7.0717619673e+00  7.0717619673e+00  0.0000000000e+00 0. 9.
       21    -1     0     0   103   104  0.0000000000e+00  0.0000000000e+00 -8.1335250872e+00  8.1335250872e+00  0.0000000000e+00 0. 9.
       21     1     1     2   101   104 -5.9900355321e+00 -1.0202919080e+00  4.0185969720e+00  7.2849600463e+00  0.0000000000e+00 0. 9.
       21     1     1     2   103   102  5.9900355321e+00  1.0202919080e+00 -5.0803600919e+00  7.9203270082e+00  0.0000000000e+00 0. 9.
#pdf   21   21  7.071762e-02  8.133525e-02  6.076308e+00  1.617757e+00  1.420742e+00
</event>
<event>
     4  9999  1.000000e+00  6.123091e+00  7.586544e-03  2.274404e-01
       21    -1     0     0   102   101  0.0000000000e+00  0.0000000000e+00  1.0714821987e+01  1.0714821987e+01  0.0000000000e+00 0. 9.
       21    -1     0     0   104   103  0.0000000000e+00  0.0000000000e+00 -5.4761772438e+00  5.4761772438e+00  0.0000000000e+00 0. 9.
       21     1     1     2   104   101  5.5008481521e+00  2.6894067097e+00 -2.2449364310e+00  6.5216545770e+00  0.0000000000e+00 0. 9.
       21     1     1     2   102   103 -5.5008481521e+00 -2.6894067097e+00  7.4835811740e+00  9.6693446536e+00  0.0000000000e+00 0. 9.
#pdf   21   21  1.071482e-01  5.476177e-02  6.123091e+00  1.077617e+00  2.018770e+00
</event>
<event>
     4  9999  1.000000e+00  5.287726e+00  7.574744e-03  2.370916e-01
       21    -1     0     0   101   102  0.0000000000e+00  0.0000000000e+00  7.7657550078e+00  7.7657550078e+00  0.0000000000e+00 0. 9.
       21    -1     0     0   103   104  0.0000000000e+00  0.0000000000e+00 -4.2107874330e+01  4.2107874330e+01  0.0000000000e+00 0. 9.
       21     1     1     2   101   104 -3.6486792342e+00 -3.8271635652e+00 -4.1017945818e+01  4.1357368391e+01  0.0000000000e+00 0. 9.
       21     1     1     2   103   102  3.6486792342e+00  3.8271635652e+00  6.6758264959e+00  8.5162609467e+00  0.0000000000e+00 0. 9.
#pdf   21   21  7.765755e-02  4.210787e-01  5.287726e+00  1.494007e+00  1.447915e-01
</event>
<event>
     4  9999  1.000000e+00  5.943893e+00  7.584152e-03  2.293308e-01
        2    -1     0     0   101     0  0.0000000000e+00  0.0000000000e+00  2.0105173587e+01  2.0105173587e+01  0.0000000000e+00 0. 9.
       21    -1     0     0   102   103  0.0000000000e+00  0.0000000000e+00 -4.3732511137e+00  4.3732511137e+00  0.0000000000e+00 0. 9.
        2     1     1     2   102     0  4.2358276243e+00 -4.1672236494e+00  1.7331542640e+01  1.8324826299e+01  3.3000000000e-01 0. 9.
       21     1     1     2   101   103 -4.2358276243e+00  4.1672236494e+00 -1.5996201671e+00  6.1535984014e+00  0.0000000000e+00 0. 9.
#pdf    2   21  2.010517e-01  4.373251e-02  5.943893e+00  5.875309e-01  2.413868e+00
</event>
<event>
     4  9999  1.000000e+00  5.628374e+00  7.579762e-03  2.328853e-01
        2    -1     0     0   101     0  0.0000000000e+00  0.0000000000e+00  2.7016788803e+01  2.7016788803e+01  0.0000000000e+00 0. 9.
       21    -1     0     0   102   103  0.0000000000e+00  0.0000000000e+00 -1.3557403187e+00  1.3557403187e+00  0.0000000000e+00 0. 9.
        2     1     1     2   102     0 -2.3212614591e+00 -5.1228178335e+00  1.8050875849e+01  1.8909641357e+01  3.3000000000e-01 0. 9.
       21     1     1     2   101   103  2.3212614591e+00  5.1228178335e+00  7.6101726349e+00  9.4628877648e+00  0.0000000000e+00 0. 9.
#pdf    2   21  2.701679e-01  1.355740e-02  5.628374e+00  5.151111e-01  5.126455e+00
</event>
<event>
     4  9999  1.000000e+00  7.420733e+00  7.602064e-03  2.159226e-01
       21    -1     0     0   102   101  0.0000000000e+00  0.0000000000e+00  1.6734085177e+01  1.6734085177e+01  0.0000000000e+00 0. 9.
       21    -1     0     0   101   103  0.0000000000e+00  0.0000000000e+00 -3.3620424738e+00  3.3620424738e+00  0.0000000000e+00 0. 9.
       21     1     1     2   104   103  6.5404484333e+00 -3.5056836525e+00  8.1494674682e+00  1.1021846651e+01  0.0000000000e+00 0. 9.
       21     1     1     2   102   104 -6.5404484333e+00  3.5056836525e+00  5.2225752352e+00  9.0742810000e+00  0.0000000000e+00 0. 9.
#pdf   21   21  1.673409e-01  3.362042e-02  7.420733e+00  6.327635e-01  2.963088e+00
</event>
<event>
     4  9999  1.000000e+00  6.571419e+00  7.592242e-03  2.230660e-01
       21    -1     0     0   102   101  0.0000000000e+00  0.0000000000e+00  4.2883859992e+00  4.2883859992e+00  0.0000000000e+00 0. 9.
       21    -1     0     0   104   103  0.0000000000e+00  0.0000000000e+00 -1.2054015031e+01  1.2054015031e+01  0.0000000000e+00 0. 9.
       21     1     1     2   104   101 -6.2595358497e+00 -2.0004382580e+00 -5.6764787163e-01  6.5958901131e+00  0.0000000000e+00 0. 9.
       21     1     1     2   102   103  6.2595358497e+00  2.0004382580e+00 -7.1979811606e+00  9.7465109176e+00  0.0000000000e+00 0. 9.
#pdf   21   21  4.288386e-02  1.205402e-01  6.571419e+00  2.457612e+00  9.423239e-01
</event>
<event>
     4  9999  1.000000e+00  7.966031e+00  7.607805e-03  2.119627e-01
       21    -1     0     0   102   103  0.0000000000e+00  0.0000000000e+00  1.6605883836e+00  1.6605883836e+00  0.0000000000e+00 0. 9.
        2    -1     0     0   101     0  0.0000000000e+00  0.0000000000e+00 -3.8213962323e+01  3.8213962323e+01  0.0000000000e+00 0. 9.
       21     1     1     2   101   103 -7.9608479459e+00  1.6766556050e-01 -1.8260231440e+01  1.9920824883e+01  0.0000000000e+00 0. 9.
        2     1     1     2   102     0  7.9608479459e+00 -1.6766556050e-01 -1.8293142499e+01  1.9953725824e+01  3.3000000000e-01 0. 9.
#pdf   21    2  1.660588e-02  3.821396e-01  7.966031e+00  4.793475e+00  3.353049e-01
</event>
<event>
     4  9999  1.000000e+00  5.202899e+00  7.573445e-03  2.382060e-01
        2    -1     0     0   101     0  0.0000000000e+00  0.0000000000e+00  1.2517618864e+01  1.2517618864e+01  0.0000000000e+00 0. 9.
       21    -1     0     0   102   101  0.0000000000e+00  0.0000000000e+00 -3.7017022372e+00  3.7017022372e+00  0.0000000000e+00 0. 9.
        2     1     1     2   103     0  3.0248191673e+00  4.2295182114e+00  9.6367413747e+00  1.0955091949e+01  3.3000000000e-01 0. 9.
       21     1     1     2   102   103 -3.0248191673e+00 -4.2295182114e+00 -8.2082474797e-01  5.2642291518e+00  0.0000000000e+00 0. 9.
#pdf    2   21  1.251762e-01  3.701702e-02  5.202899e+00  6.312257e-01  2.712017e+00
</event>
<event>
     4  9999  1.000000e+00  5.216729e+00  7.573658e-03  2.380224e-01
        2    -1     0     0   101     0  0.0000000000e+00  0.0000000000e+00  3.9171316360e+01  3.9171316360e+01  0.0000000000e+00 0. 9.
       21    -1     0     0   102   103  0.0000000000e+00  0.0000000000e+00 -2.9563556935e+00  2.9563556935e+00  0.0000000000e+00 0. 9.
        2     1     1     2   102     0  3.7056496891e+00  3.6700988681e+00  3.6530713442e+01  3.6902620366e+01  3.3000000000e-01 0. 9.
       21     1     1     2   101   103 -3.7056496891e+00 -3.6700988681e+00 -3.1575277525e-01  5.2250516873e+00  0.0000000000e+00 0. 9.
#pdf    2   21  3.917132e-01  2.956356e-02  5.216729e+00  3.526120e-01  3.163673e+00
</event>
<event>
     4  9999  1.000000e+00  5.448267e+00  7.577147e-03  2.350577e-01
       21    -1     0     0   102   103  0.0000000000e+00  0.0000000000e+00  3.4497080012e+00  3.4497080012e+00  0.0000000000e+00 0. 9.
        1    -1     0     0   101     0  0.0000000000e+00  0.0000000000e+00 -3.1714234159e+01  3.1714234159e+01  0.0000000000e+00 0. 9.
       21     1     1     2   101   103 -5.3069764645e+00 -1.2267219531e+00  8.7598379369e-01  5.5169007197e+00  0.0000000000e+00 0. 9.
        1     1     1     2   102     0  5.3069764645e+00  1.2267219531e+00 -2.9140509951e+01  2.9647041440e+01  3.3000000000e-01 0. 9.
#pdf   21    1  3.449708e-02  3.171423e-01  5.448267e+00  2.860205e+00  1.918928e-01
</event>
<event>
     4  9999  1.000000e+00  5.863792e+00  7.583059e-03  2.302048e-01
        1    -1     0     0   101     0  0.0000000000e+00  0.0000000000e+00  3.7671760588e+00  3.7671760588e+00  0.0000000000e+00 0. 9.
       21    -1     0     0   102   101  0.0000000000e+00  0.0000000000e+00 -1.8069006249e+01  1.8069006249e+01  0.0000000000e+00 0. 9.
        1     1     1     2   103     0  5.7904140778e+00 -9.0976020865e-01  5.2366804441e-01  5.8940382634e+00  3.3000000000e-01 0. 9.
       21     1     1     2   102   103 -5.7904140778e+00  9.0976020865e-01 -1.4825498235e+01  1.5942144045e+01  0.0000000000e+00 0. 9.
#pdf    1   21  3.767176e-02  1.806901e-01  5.863792e+00  4.302565e-01  6.020384e-01
</event>
<event>
     4  9999  1.000000e+00  5.236505e+00  7.573962e-03  2.377611e-01
       21    -1     0     0   101   102  0.0000000000e+00  0.0000000000e+00  4.7751727604e+00  4.7751727604e+00  0.0000000000e+00 0. 9.
       21    -1     0     0   103   101  0.0000000000e+00  0.0000000000e+00 -2.2650346586e+01  2.2650346586e+01  0.0000000000e+00 0. 9.
       21     1     1     2   103   104  3.1689504529e+00  4.1687817524e+00 -2.0785252166e+01  2.1434731067e+01  0.0000000000e+00 0. 9.
       21     1     1     2   104   102 -3.1689504529e+00 -4.1687817524e+00  2.9100783404e+00  5.9907882803e+00  0.0000000000e+00 0. 9.
#pdf   21   21  4.775173e-02  2.265035e-01  5.236505e+00  2.248163e+00  4.682173e-01
</event>
<event>
     4  9999  1.000000e+00  5.032117e+00  7.570766e-03  2.405394e-01
       21    -1     0     0   102   101  0.0000000000e+00  0.0000000000e+00  2.3998517460e+01  2.3998517460e+01  0.0000000000e+00 0. 9.
       21    -1     0     0   101   103  0.0000000000e+00  0.0000000000e+00 -1.0813200028e+00  1.0813200028e+00  0.0000000000e+00 0. 9.
       21     1     1     2   104   103 -4.9436361405e+00  9.3949924416e-01  1.3409178289e+01  1.4322299379e+01  0.0000000000e+00 0. 9.
       21     1     1     2   102   104  4.9436361405e+00 -9.3949924416e-01  9.5080191684e+00  1.0757538084e+01  0.0000000000e+00 0. 9.
#pdf   21   21  2.399852e-01  1.081320e-02  5.032117e+00  4.405730e-01  5.651419e+00
</event>
<event>
     4  9999  1.000000e+00  5.282791e+00  7.574669e-03  2.371556e-01
       21    -1     0     0   101   102  0.0000000000e+00  0.0000000000e+00  3.6911722271e+00  3.6911722271e+00  0.0000000000e+00 0. 9.
       21    -1     0     0   103   101  0.0000000000e+00  0.0000000000e+00 -8.6455375233e+00  8.6455375233e+00  0.0000000000e+00 0. 9.
       21     1     1     2   103   104  4.2553895561e+00  3.1304214674e+00 -4.6621950793e+00  7.0458457119e+00  0.0000000000e+00 0. 9.
       21     1     1     2   104   102 -4.2553895561e+00 -3.1304214674e+00 -2.9217021684e-01  5.2908640385e+00  0.0000000000e+00 0. 9.
#pdf   21   21  3.691172e-02  8.645538e-02  5.282791e+00  2.720651e+00  1.351577e+00
</event>
<event>
     4  9999  1.000000e+00  6.640154e+00  7.593082e-03  2.224361e-01
        2    -1     0     0   101     0  0.0000000000e+00  0.0000000000e+00  2.8416195811e+01  2.8416195811e+01  0.0000000000e+00 0. 9.
       21    -1     0     0   102   103  0.0000000000e+00  0.0000000000e+00 -1.6587248548e+00  1.6587248548e+00  0.0000000000e+00 0. 9.
        2     1     1     2   102     0 -6.3096428580e+00 -2.0564852881e+00  9.5678574922e+00  1.1648756231e+01  3.3000000000e-01 0. 9.
       21     1     1     2   101   103  6.3096428580e+00  2.0564852881e+00  1.7189613464e+01  1.8426164434e+01  0.0000000000e+00 0. 9.
#pdf    2   21  2.841620e-01  1.658725e-02  6.640154e+00  4.850450e-01  4.685654e+00
</event>
<event>
     4  9999  1.000000e+00  6.047299e+00  7.585541e-03  2.282293e-01
       21    -1     0     0   101   102  0.0000000000e+00  0.0000000000e+00  5.2240984047e+00  5.2240984047e+00  0.0000000000e+00 0. 9.
       21    -1     0     0   102   103  0.0000000000e+00  0.0000000000e+00 -4.0496226962e+01  4.0496226962e+01  0.0000000000e+00 0. 9.
       21     1     1     2   101   104 -5.9560227862e+00 -1.0467204601e+00  3.1546094748e+00  6.8206592122e+00  0.0000000000e+00 0. 9.
       21     1     1     2   104   103  5.9560227862e+00  1.0467204601e+00 -3.8426738032e+01  3.8899666155e+01  0.0000000000e+00 0. 9.
#pdf   21   21  5.224098e-02  4.049623e-01  6.047299e+00  2.098424e+00  1.516774e-01
</event>
<event>
     4  9999  1.000000e+00  5.001287e+00  7.570273e-03  2.409741e-01
       21    -1     0     0   101   102  0.0000000000e+00  0.0000000000e+00  7.9736480159e+00  7.9736480159e+00  0.0000000000e+00 0. 9.
       21    -1     0     0   103   104  0.0000000000e+00  0.0000000000e+00 -1.1107489728e+01  1.1107489728e+01  0.0000000000e+00 0. 9.
       21     1     1     2   101   104 -2.8008665462e-01  4.9934382707e+00  6.5149216727e+00  8.2132258400e+00  0.0000000000e+00 0. 9.
       21     1     1     2   103   102  2.8008665462e-01 -4.9934382707e+00 -9.6487633847e+00  1.0867911904e+01  0.0000000000e+00 0. 9.
#pdf   21   21  7.973648e-02  1.110749e-01  5.001287e+00  1.461171e+00  1.057886e+00
</event>
<event>
     4  9999  1.000000e+00  8.123824e+00  7.609395e-03  2.108929e-01
        3    -1     0     0   101     0  0.0000000000e+00  0.0000000000e+00  3.8718174400e+00  3.8718174400e+00  0.0000000000e+00 0. 9.
        2    -1     0     0   102     0  0.0000000000e+00  0.0000000000e+00 -1.7409360697e+01  1.7409360697e+01  0.0000000000e+00 0. 9.
        3     1     1     2   102     0 -2.0747191071e+00 -7.8432375633e+00 -5.2357603478e+00  9.6687135270e+00  5.0000000000e-01 0. 9.
        2     1     1     2   101     0  2.0747191071e+00  7.8432375633e+00 -8.3017829096e+00  1.1612464610e+01  3.3000000000e-01 0. 9.
#pdf    3    2  3.871817e-02  1.740936e-01  8.123824e+00  8.901809e-02  5.949835e-01
</event>
<event>
     4  9999  1.000000e+00  5.128090e+00  7.572282e-03  2.392130e-01
       -2    -1     0     0     0   101  0.0000000000e+00  0.0000000000e+00  5.7839715767e+00  5.7839715767e+00  0.0000000000e+00 0. 9.
       21    -1     0     0   103   102  0.0000000000e+00  0.0000000000e+00 -5.5076629927e+00  5.5076629927e+00  0.0000000000e+00 0. 9.
       -2     1     1     2     0   102  7.6654713682e-01  5.0660416740e+00 -2.2181426305e+00  5.5929803759e+00  3.3000000000e-01 0. 9.
       21     1     1     2   103   101 -7.6654713682e-01 -5.0660416740e+00  2.4944512145e+00  5.6986541935e+00  0.0000000000e+00 0. 9.
#pdf   -2   21  5.783972e-02  5.507663e-02  5.128090e+00  1.284844e-01  2.007977e+00
</event>
<event>
     4  9999  1.000000e+00  6.551984e+00  7.592003e-03  2.232460e-01
        2    -1     0     0   101     0  0.0000000000e+00  0.0000000000e+00  3.1352640710e+01  3.1352640710e+01  0.0000000000e+00 0. 9.
       21    -1     0     0   102   103  0.0000000000e+00  0.0000000000e+00 -2.7188238795e+00  2.7188238795e+00  0.0000000000e+00 0. 9.
        2     1     1     2   102     0  4.9653391301e+00  4.2715902834e+00  2.3227430297e+00  6.9573781994e+00  3.3000000000e-01 0. 9.
       21     1     1     2   101   103 -4.9653391301e+00 -4.2715902834e+00  2.6311073801e+01  2.7114086390e+01  0.0000000000e+00 0. 9.
#pdf    2   21  3.135264e-01  2.718824e-02  6.551984e+00  4.458621e-01  3.415622e+00
</event>
<event>
     4  9999  1.000000e+00  5.013700e+00  7.570472e-03  2.407986e-01
       21    -1     0     0   102   101  0.0000000000e+00  0.0000000000e+00  3.4785289531e+01  3.4785289531e+01  0.0000000000e+00 0. 9.
       21    -1     0     0   101   103  0.0000000000e+00  0.0000000000e+00 -1.6566218240e+00  1.6566218240e+00  0.0000000000e+00 0. 9.
       21     1     1     2   104   103 -1.7217538629e+00 -4.7087954551e+00  2.8829819665e+00  5.7834916808e+00  0.0000000000e+00 0. 9.
       21     1     1     2   102   104  1.7217538629e+00  4.7087954551e+00  3.0245685741e+01  3.0658419674e+01  0.0000000000e+00 0. 9.
#pdf   21   21  3.478529e-01  1.656622e-02  5.013700e+00  2.504492e-01  4.480197e+00
</event>
<event>
     4  9999  1.000000e+00  7.150879e+00  7.599068e-03  2.180507e-01
       21    -1     0     0   101   102  0.0000000000e+00  0.0000000000e+00  1.2287691392e+01  1.2287691392e+01  0.0000000000e+00 0. 9.
       21    -1     0     0   103   104  0.0000000000e+00  0.0000000000e+00 -7.6734864043e+00  7.6734864043e+00  0.0000000000e+00 0. 9.
       21     1     1     2   101   104  2.1741414976e+00 -6.8123545815e+00  9.0591739409e+00  1.1541390674e+01  0.0000000000e+00 0. 9.
       21     1     1     2   103   102 -2.1741414976e+00  6.8123545815e+00 -4.4449689531e+00  8.4197871226e+00  0.0000000000e+00 0. 9.
#pdf   21   21  1.228769e-01  7.673486e-02  7.150879e+00  9.131166e-01  1.487851e+00
</event>
<event>
     4  9999  1.000000e+00  8.668860e+00  7.614663e-03  2.074268e-01
        1    -1     0     0   101     0  0.0000000000e+00  0.0000000000e+00  1.0365579274e+01  1.0365579274e+01  0.0000000000e+00 0. 9.
        2    -1     0     0   102     0  0.0000000000e+00  0.0000000000e+00 -8.4680154106e+00  8.4680154106e+00  0.0000000000e+00 0. 9.
        1     1     1     2   102     0 -1.9576055907e+00 -8.4394120734e+00  4.5181547737e+00  9.7764266659e+00  3.3000000000e-01 0. 9.
        2     1     1     2   101     0  1.9576055907e+00  8.4394120734e+00 -2.6205909106e+00  9.0571680185e+00  3.3000000000e-01 0. 9.
#pdf    1    2  1.036558e-01  8.468015e-02  8.668860e+00  3.887473e-01  6.200912e-01
</event>
<event>
     4  9999  1.000000e+00  5.432093e+00  7.576908e-03  2.352583e-01
       21    -1     0     0   102   101  0.0000000000e+00  0.0000000000e+00  3.5030208164e+00  3.5030208164e+00  0.0000000000e+00 0. 9.
       21    -1     0     0   104   103  0.0000000000e+00  0.0000000000e+00 -1.2940195090e+01  1.2940195090e+01  0.0000000000e+00 0. 9.
       21     1     1     2   104   101  3.7178098559e+00 -3.9604958372e+00  1.3874208861e-01  5.4338648095e+00  0.0000000000e+00 0. 9.
       21     1     1     2   102   103 -3.7178098559e+00  3.9604958372e+00 -9.5759163624e+00  1.1009351097e+01  0.0000000000e+00 0. 9.
#pdf   21   21  3.503021e-02  1.294020e-01  5.432093e+00  2.829163e+00  8.916432e-01
</event>
<event>
     4  9999  1.000000e+00  6.269851e+00  7.588453e-03  2.259552e-01
        3    -1     0     0   101     0  0.0000000000e+00  0.0000000000e+00  1.7266006147e+01  1.7266006147e+01  0.0000000000e+00 0. 9.
       21    -1     0     0   102   103  0.0000000000e+00  0.0000000000e+00 -2.2854127042e+00  2.2854127042e+00  0.0000000000e+00 0. 9.
        3     1     1     2   102     0 -4.5883721810e+00 -4.2583384753e+00  8.1017441728e+00  1.0250603128e+01  5.0000000000e-01 0. 9.
       21     1     1     2   101   103  4.5883721810e+00  4.2583384753e+00  6.8788492701e+00  9.3008157235e+00  0.0000000000e+00 0. 9.
#pdf    3   21  1.726601e-01  2.285413e-02  6.269851e+00  1.911645e-02  3.812248e+00
</event>
<event>
     4  9999  1.000000e+00  6.443422e+00  7.590655e-03  2.242667e-01
       21    -1     0     0   101   102  0.0000000000e+00  0.0000000000e+00  2.0358895975e+01  2.0358895975e+01  0.0000000000e+00 0. 9.
       21    -1     0     0   102   103  0.0000000000e+00  0.0000000000e+00 -3.8832286839e+00  3.8832286839e+00  0.0000000000e+00 0. 9.
       21     1     1     2   101   104 -6.1271338117e+00  1.9939689291e+00  1.6590353351e+01  1.7797682578e+01  0.0000000000e+00 0. 9.
       21     1     1     2   104   103  6.1271338117e+00 -1.9939689291e+00 -1.1468606018e-01  6.4444420805e+00  0.0000000000e+00 0. 9.
#pdf   21   21  2.035890e-01  3.883229e-02  6.443422e+00  5.095039e-01  2.648514e+00
</event>
<event>
     4  9999  1.000000e+00  5.364340e+00  7.575899e-03  2.361090e-01
       21    -1     0     0   101   102  0.0000000000e+00  0.0000000000e+00  1.3320227594e+00  1.3320227594e+00  0.0000000000e+00 0. 9.
       21    -1     0     0   103   101  0.0000000000e+00  0.0000000000e+00 -2.2101325504e+01  2.2101325504e+01  0.0000000000e+00 0. 9.
       21     1     1     2   103   104 -3.7475916288e+00  3.8381900446e+00 -8.6259106696e+00  1.0157877766e+01  0.0000000000e+00 0. 9.
       21     1     1     2   104   102  3.7475916288e+00 -3.8381900446e+00 -1.2143392075e+01  1.3275470497e+01  0.0000000000e+00 0. 9.
#pdf   21   21  1.332023e-02  2.210133e-01  5.364340e+00  5.129864e+00  4.797486e-01
</event>
<event>
     4  9999  1.000000e+00  9.216393e+00  7.619638e-03  2.042604e-01
        2    -1     0     0   101     0  0.0000000000e+00  0.0000000000e+00  2.0440025113e+01  2.0440025113e+01  0.0000000000e+00 0. 9.
       21    -1     0     0   102   101  0.0000000000e+00  0.0000000000e+00 -7.7933251241e+00  7.7933251241e+00  0.0000000000e+00 0. 9.
        2     1     1     2   103     0  8.7064653330e+00  3.0183327402e+00  1.5967334485e+01  1.8438479918e+01  3.3000000000e-01 0. 9.
       21     1     1     2   102   103 -8.7064653330e+00 -3.0183327402e+00 -3.3206344956e+00  9.7948703196e+00  0.0000000000e+00 0. 9.
#pdf    2   21  2.044003e-01  7.793325e-02  9.216393e+00  5.612357e-01  1.442947e+00
</event>
<event>
     4  9999  1.000000e+00  5.014106e+00  7.570478e-03  2.407928e-01
       21    -1     0     0   101   102  0.0000000000e+00  0.0000000000e+00  3.5410738291e+00  3.5410738291e+00  0.0000000000e+00 0. 9.
       21    -1     0     0   102   103  0.0000000000e+00  0.0000000000e+00 -2.4127127341e+01  2.4127127341e+01  0.0000000000e+00 0. 9.
       21     1     1     2   101   104  2.9588114253e+00  4.0480482159e+00  1.3286857167e+00  5.1871634968e+00  0.0000000000e+00 0. 9.
       21     1     1     2   104   103 -2.9588114253e+00 -4.0480482159e+00 -2.1914739228e+01  2.2481037673e+01  0.0000000000e+00 0. 9.
#pdf   21   21  3.541074e-02  2.412713e-01  5.014106e+00  2.789334e+00  4.381037e-01
</event>
<event>
     4  9999  1.000000e+00  5.507967e+00  7.578023e-03  2.343253e-01
       -3    -1     0     0     0   101  0.0000000000e+00  0.0000000000e+00  5.2512205104e+00  5.2512205104e+00  0.0000000000e+00 0. 9.
        2    -1     0     0   101     0  0.0000000000e+00  0.0000000000e+00 -5.7789630287e+00  5.7789630287e+00  0.0000000000e+00 0. 9.
       -3     1     1     2     0   102 -4.4548602467e-01  5.4735623165e+00 -3.5840262148e-01  5.5260107374e+00  5.0000000000e-01 0. 9.
        2     1     1     2   102     0  4.4548602467e-01 -5.4735623165e+00 -1.6933989679e-01  5.5041728017e+00  3.3000000000e-01 0. 9.
#pdf   -3    2  5.251221e-02  5.778963e-02  5.507967e+00  6.336023e-02  5.980649e-01
</event>
<event>
     4  9999  1.000000e+00  5.107892e+00  7.571965e-03  2.394889e-01
        1    -1     0     0   101     0  0.0000000000e+00  0.0000000000e+00  6.2045949890e+00  6.2045949890e+00  0.0000000000e+00 0. 9.
       21    -1     0     0   102   101  0.0000000000e+00  0.0000000000e+00 -2.2577393189e+01  2.2577393189e+01  0.0000000000e+00 0. 9.
        1     1     1     2   103     0 -1.5294257539e+00  4.8725018729e+00  4.7913286954e+00  7.0104313922e+00  3.3000000000e-01 0. 9.
       21     1     1     2   102   103  1.5294257539e+00 -4.8725018729e+00 -2.1164126896e+01  2.1771556786e+01  0.0000000000e+00 0. 9.
#pdf    1   21  6.204595e-02  2.257739e-01  5.107892e+00  4.164765e-01  4.730138e-01
</event>
<event>
     4  9999  1.000000e+00  6.474449e+00  7.591043e-03  2.239723e-01
        1    -1     0     0   101     0  0.0000000000e+00  0.0000000000e+00  1.2060968203e+01  1.2060968203e+01  0.0000000000e+00 0. 9.
       21    -1     0     0   102   101  0.0000000000e+00  0.0000000000e+00 -1.0002443324e+01  1.0002443324e+01  0.0000000000e+00 0. 9.
        1     1     1     2   103     0 -6.4729359739e+00  2.5838740224e-02  9.9388215874e+00  1.1865438985e+01  3.3000000000e-01 0. 9.
       21     1     1     2   102   103  6.4729359739e+00 -2.5838740224e-02 -7.8802967081e+00  1.0197972542e+01  0.0000000000e+00 0. 9.
#pdf    1   21  1.206097e-01  1.000244e-01  6.474449e+00  3.803435e-01  1.152050e+00
</event>
<event>
     4  9999  1.000000e+00  5.362100e+00  7.575866e-03  2.361374e-01
       21    -1     0     0   101   102  0.0000000000e+00  0.0000000000e+00  6.4786711194e+00  6.4786711194e+00  0.0000000000e+00 0. 9.
       21    -1     0     0   103   104  0.0000000000e+00  0.0000000000e+00 -1.3827089260e+01  1.3827089260e+01  0.0000000000e+00 0. 9.
       21     1     1     2   101   104  2.1668006650e+00 -4.9048032655e+00  4.6921481786e+00  7.1251929606e+00  0.0000000000e+00 0. 9.
       21     1     1     2   103   102 -2.1668006650e+00  4.9048032655e+00 -1.2040566319e+01  1.3180567419e+01  0.0000000000e+00 0. 9.
#pdf   21   21  6.478671e-02  1.382709e-01  5.362100e+00  1.754403e+00  8.301302e-01
</event>
<event>
     4  9999  1.000000e+00  5.400468e+00  7.576439e-03  2.356533e-01
       21    -1     0     0   102   101  0.0000000000e+00  0.0000000000e+00  4.8352260586e+00  4.8352260586e+00  0.0000000000e+00 0. 9.
       21    -1     0     0   104   103  0.0000000000e+00  0.0000000000e+00 -1.9182550816e+01  1.9182550816e+01  0.0000000000e+00 0. 9.
       21     1     1     2   104   101  2.8991194354e+00 -4.5563314430e+00  2.7695137900e+00  6.0692055784e+00  0.0000000000e+00 0. 9.
       21     1     1     2   102   103 -2.8991194354e+00  4.5563314430e+00 -1.7116838548e+01  1.7948571297e+01  0.0000000000e+00 0. 9.
#pdf   21   21  4.835226e-02  1.918255e-01  5.400468e+00  2.229129e+00  5.694916e-01
</event>
<event>
     4  9999  1.000000e+00  1.219401e+01  7.643195e-03  1.909375e-01
        2    -1     0     0   101     0  0.0000000000e+00  0.0000000000e+00  2.7794417241e+01  2.7794417241e+01  0.0000000000e+00 0. 9.
       21    -1     0     0   102   101  0.0000000000e+00  0.0000000000e+00 -7.4561771334e+00  7.4561771334e+00  0.0000000000e+00 0. 9.
        2     1     1     2   103     0  5.1607823138e+00 -1.1046318810e+01  1.9537269017e+01  2.3031904263e+01  3.3000000000e-01 0. 9.
       21     1     1     2   102   103 -5.1607823138e+00  1.1046318810e+01  8.0097109010e-01  1.2218690111e+01  0.0000000000e+00 0. 9.
#pdf    2   21  2.779442e-01  7.456177e-02  1.219401e+01  4.544419e-01  1.480312e+00
</event>
<event>
     4  9999  1.000000e+00  6.230099e+00  7.587941e-03  2.263521e-01
        2    -1     0     0   101     0  0.0000000000e+00  0.0000000000e+00  2.6733247560e+01  2.6733247560e+01  0.0000000000e+00 0. 9.
       21    -1     0     0   102   103  0.0000000000e+00  0.0000000000e+00 -4.1432198097e+00  4.1432198097e+00  0.0000000000e+00 0. 9.
        2     1     1     2   102     0  1.2126608971e+00  6.1093787074e+00  2.3737324410e+01  2.4543115629e+01  3.3000000000e-01 0. 9.
       21     1     1     2   101   103 -1.2126608971e+00 -6.1093787074e+00 -1.1472966599e+00  6.3333517404e+00  0.0000000000e+00 0. 9.
#pdf    2   21  2.673325e-01  4.143220e-02  6.230099e+00  5.115043e-01  2.519043e+00
</event>
<event>
     4  9999  1.000000e+00  5.303532e+00  7.574983e-03  2.368870e-01
       21    -1     0     0   102   103  0.0000000000e+00  0.0000000000e+00  1.9247743514e+00  1.9247743514e+00  0.0000000000e+00 0. 9.
        2    -1     0     0   101     0  0.0000000000e+00  0.0000000000e+00 -2.5579546962e+01  2.5579546962e+01  0.0000000000e+00 0. 9.
       21     1     1     2   101   103 -9.7489432998e-01 -5.2101764755e+00 -2.8214835143e+00  6.0047587031e+00  0.0000000000e+00 0. 9.
        2     1     1     2   102     0  9.7489432998e-01  5.2101764755e+00 -2.0833289097e+01  2.1499562611e+01  3.3000000000e-01 0. 9.
#pdf   21    2  1.924774e-02  2.557955e-01  5.303532e+00  4.148279e+00  5.370233e-01
</event>
<event>
     4  9999  1.000000e+00  6.448853e+00  7.590723e-03  2.242150e-01
        2    -1     0     0   101     0  0.0000000000e+00  0.0000000000e+00  2.6538604287e+01  2.6538604287e+01  0.0000000000e+00 0. 9.
       21    -1     0     0   102   103  0.0000000000e+00  0.0000000000e+00 -1.8952010956e+00  1.8952010956e+00  0.0000000000e+00 0. 9.
        2     1     1     2   102     0  4.8985385259e+00  4.1889161424e+00  1.8240847890e+01  1.9348905134e+01  3.3000000000e-01 0. 9.
       21     1     1     2   101   103 -4.8985385259e+00 -4.1889161424e+00  6.4025553013e+00  9.0849002485e+00  0.0000000000e+00 0. 9.
#pdf    2   21  2.653860e-01  1.895201e-02  6.448853e+00  5.115422e-01  4.303410e+00
</event>
<event>
     4  9999  1.000000e+00  5.809101e+00  7.582305e-03  2.308124e-01
        2    -1     0     0   101     0  0.0000000000e+00  0.0000000000e+00  2.9922045641e+01  2.9922045641e+01  0.0000000000e+00 0. 9.
       -3    -1     0     0     0   101  0.0000000000e+00  0.0000000000e+00 -2.3209342704e+00  2.3209342704e+00  0.0000000000e+00 0. 9.
        2     1     1     2   102     0 -1.7046415905e+00 -5.5455083913e+00  2.5337623531e+01  2.5995432915e+01  3.3000000000e-01 0. 9.
       -3     1     1     2     0   102  1.7046415905e+00  5.5455083913e+00  2.2634878402e+00  6.2475469965e+00  5.0000000000e-01 0. 9.
#pdf    2   -3  2.992205e-01  2.320934e-02  5.809101e+00  4.746194e-01  1.139617e-01
</event>
<event>
     4  9999  1.000000e+00  5.989335e+00  7.584765e-03  2.288431e-01
        2    -1     0     0   101     0  0.0000000000e+00  0.0000000000e+00  2.3979912436e+01  2.3979912436e+01  0.0000000000e+00 0. 9.
       21    -1     0     0   102   101  0.0000000000e+00  0.0000000000e+00 -6.0226868992e+00  6.0226868992e+00  0.0000000000e+00 0. 9.
        2     1     1     2   103     0 -5.0414775147e+00  3.2314266611e+00  2.1983369936e+01  2.2786752018e+01  3.3000000000e-01 0. 9.
       21     1     1     2   102   103  5.0414775147e+00 -3.2314266611e+00 -4.0261443984e+00  7.2158473178e+00  0.0000000000e+00 0. 9.
#pdf    2   21  2.397991e-01  6.022687e-02  5.989335e+00  5.474531e-01  1.863878e+00
</event>
<event>
     4  9999  1.000000e+00  8.340274e+00  7.611527e-03  2.094755e-01
        1    -1     0     0   101     0  0.0000000000e+00  0.0000000000e+00  2.1991693846e+01  2.1991693846e+01  0.0000000000e+00 0. 9.
       21    -1     0     0   102   103  0.0000000000e+00  0.0000000000e+00 -7.2687079683e+00  7.2687079683e+00  0.0000000000e+00 0. 9.
        1     1     1     2   102     0 -7.9995302129e+00  2.3545692053e+00  1.8356365304e+01  2.0164362795e+01  3.3000000000e-01 0. 9.
       21     1     1     2   101   103  7.9995302129e+00 -2.3545692053e+00 -3.6333794266e+00  9.0960390186e+00  0.0000000000e+00 0. 9.
#pdf    1   21  2.199169e-01  7.268708e-02  8.340274e+00  2.751089e-01  1.553575e+00
</event>
<event>
     4  9999  1.000000e+00  5.157268e+00  7.572738e-03  2.388175e-01
        2    -1     0     0   101     0  0.0000000000e+00  0.0000000000e+00  1.9720948626e+01  1.9720948626e+01  0.0000000000e+00 0. 9.
        1    -1     0     0   102     0  0.0000000000e+00  0.0000000000e+00 -2.1299446937e+01  2.1299446937e+01  0.0000000000e+00 0. 9.
        2     1     1     2   102     0  3.1374350054e+00  4.0923117223e+00  1.9058400705e+01  1.9746444010e+01  3.3000000000e-01 0. 9.
        1     1     1     2   101     0 -3.1374350054e+00 -4.0923117223e+00 -2.0636899016e+01  2.1273951552e+01  3.3000000000e-01 0. 9.
#pdf    2    1  1.972095e-01  2.129945e-01  5.157268e+00  5.985046e-01  3.002986e-01
</event>
<event>
     4  9999  1.000000e+00  5.936961e+00  7.584058e-03  2.294057e-01
        2    -1     0     0   101     0  0.0000000000e+00  0.0000000000e+00  3.6528633016e+01  3.6528633016e+01  0.0000000000e+00 0. 9.
        3    -1     0     0   102     0  0.0000000000e+00  0.0000000000e+00 -1.1208015845e+00  1.1208015845e+00  0.0000000000e+00 0. 9.
        2     1     1     2   102     0 -4.8331507440e+00  3.4254480007e+00  2.4693472715e+01  2.5396250409e+01  3.3000000000e-01 0. 9.
        3     1     1     2   101     0  4.8331507440e+00 -3.4254480007e+00  1.0714358717e+01  1.2253184192e+01  5.0000000000e-01 0. 9.
#pdf    2    3  3.652863e-01  1.120802e-02  5.936961e+00  3.801594e-01  1.706306e-01
</event>
<event>
     4  9999  1.000000e+00  6.030054e+00  7.585311e-03  2.284110e-01
        2    -1     0     0   101     0  0.0000000000e+00  0.0000000000e+00  1.2361499460e+01  1.2361499460e+01  0.0000000000e+00 0. 9.
       21    -1     0     0   102   103  0.0000000000e+00  0.0000000000e+00 -3.1893099805e+01  3.1893099805e+01  0.0000000000e+00 0. 9.
        2     1     1     2   102     0 -3.8346310968e+00  4.6531851826e+00  1.1314283403e+01  1.2824914694e+01  3.3000000000e-01 0. 9.
       21     1     1     2   101   103  3.8346310968e+00 -4.6531851826e+00 -3.0845883748e+01  3.1429684570e+01  0.0000000000e+00 0. 9.
#pdf    2   21  1.236150e-01  3.189310e-01  6.030054e+00  6.281691e-01  2.718419e-01
</event>
<event>
     4  9999  1.000000e+00  6.484331e+00  7.591166e-03  2.238790e-01
        1    -1     0     0   101     0  0.0000000000e+00  0.0000000000e+00  2.4842254788e+00  2.4842254788e+00  0.0000000000e+00 0. 9.
       21    -1     0     0   102   103  0.0000000000e+00  0.0000000000e+00 -2.6568435430e+01  2.6568435430e+01  0.0000000000e+00 0. 9.
        1     1     1     2   102     0 -9.0179385048e-01 -6.4186167342e+00 -3.2992440848e+00  7.2805071569e+00  3.3000000000e-01 0. 9.
       21     1     1     2   101   103  9.0179385048e-01  6.4186167342e+00 -2.0784965866e+01  2.1772153752e+01  0.0000000000e+00 0. 9.
#pdf    1   21  2.484225e-02  2.656844e-01  6.484331e+00  4.475074e-01  3.560886e-01
</event>
<event>
     4  9999  1.000000e+00  5.315844e+00  7.575170e-03  2.367283e-01
       21    -1     0     0   102   103  0.0000000000e+00  0.0000000000e+00  3.3980675817e+01  3.3980675817e+01  0.0000000000e+00 0. 9.
        2    -1     0     0   101     0  0.0000000000e+00  0.0000000000e+00 -9.4761987940e-01  9.4761987940e-01  0.0000000000e+00 0. 9.
       21     1     1     2   101   103  2.7570066815e-01 -5.3041894225e+00  2.2608276477e+01  2.3223793866e+01  0.0000000000e+00 0. 9.
        2     1     1     2   102     0 -2.7570066815e-01  5.3041894225e+00  1.0424779461e+01  1.1704501831e+01  3.3000000000e-01 0. 9.
#pdf   21    2  3.398068e-01  9.476199e-03  5.315844e+00  2.549013e-01  5.572559e-01
</event>
<event>
     4  9999  1.000000e+00  5.086023e+00  7.571621e-03  2.397895e-01
       21    -1     0     0   101   102  0.0000000000e+00  0.0000000000e+00  1.7988021752e+01  1.7988021752e+01  0.0000000000e+00 0. 9.
       21    -1     0     0   103   104  0.0000000000e+00  0.0000000000e+00 -5.0841286750e+00  5.0841286750e+00  0.0000000000e+00 0. 9.
       21     1     1     2   101   104  2.6300418207e+00  4.3532185874e+00 -3.3173427707e+00  6.0722644134e+00  0.0000000000e+00 0. 9.
       21     1     1     2   103   102 -2.6300418207e+00 -4.3532185874e+00  1.6221235848e+01  1.6999886014e+01  0.0000000000e+00 0. 9.
#pdf   21   21  1.798802e-01  5.084129e-02  5.086023e+00  6.214222e-01  2.139243e+00
</event>
<event>
     4  9999  1.000000e+00  7.190994e+00  7.599520e-03  2.177266e-01
       21    -1     0     0   101   102  0.0000000000e+00  0.0000000000e+00  3.1543659299e+01  3.1543659299e+01  0.0000000000e+00 0. 9.
       21    -1     0     0   102   103  0.0000000000e+00  0.0000000000e+00 -1.1971461301e+01  1.1971461301e+01  0.0000000000e+00 0. 9.
       21     1     1     2   101   104 -5.1701781017e+00  4.9979644369e+00  2.9999138390e+01  3.0848965854e+01  0.0000000000e+00 0. 9.
       21     1     1     2   104   103  5.1701781017e+00 -4.9979644369e+00 -1.0426940392e+01  1.2666154746e+01  0.0000000000e+00 0. 9.
#pdf   21   21  3.154366e-01  1.197146e-01  7.190994e+00  2.574931e-01  9.395665e-01
</event>
<event>
     4  9999  1.000000e+00  5.590443e+00  7.579218e-03  2.333337e-01
       21    -1     0     0   102   103  0.0000000000e+00  0.0000000000e+00  1.1705650398e+00  1.1705650398e+00  0.0000000000e+00 0. 9.
        1    -1     0     0   101     0  0.0000000000e+00  0.0000000000e+00 -2.8335417327e+01  2.8335417327e+01  0.0000000000e+00 0. 9.
       21     1     1     2   101   103 -3.8894959372e+00  4.0091887726e+00 -1.0028942723e+01  1.1479610856e+01  0.0000000000e+00 0. 9.
        1     1     1     2   102     0  3.8894959372e+00 -4.0091887726e+00 -1.7135909564e+01  1.8026371511e+01  3.3000000000e-01 0. 9.
#pdf   21    1  1.170565e-02  2.833542e-01  5.590443e+00  5.550363e+00  2.240089e-01
</event>
<event>
     4  9999  1.000000e+00  5.352248e+00  7.575718e-03  2.362626e-01
        1    -1     0     0   101     0  0.0000000000e+00  0.0000000000e+00  1.6133819005e+01  1.6133819005e+01  0.0000000000e+00 0. 9.
       21    -1     0     0   102   103  0.0000000000e+00  0.0000000000e+00 -4.6204363653e+00  4.6204363653e+00  0.0000000000e+00 0. 9.
        1     1     1     2   102     0  3.1640922550e+00  4.3144127255e+00  1.3898500380e+01  1.4896403921e+01  3.3000000000e-01 0. 9.
       21     1     1     2   101   103 -3.1640922550e+00 -4.3144127255e+00 -2.3851177406e+00  5.8578514491e+00  0.0000000000e+00 0. 9.
#pdf    1   21  1.613382e-01  4.620436e-02  5.352248e+00  3.501339e-01  2.307809e+00
</event>
<event>
     4  9999  1.000000e+00  5.702533e+00  7.580815e-03  2.320223e-01
        2    -1     0     0   101     0  0.0000000000e+00  0.0000000000e+00  2.0507425800e+01  2.0507425800e+01  0.0000000000e+00 0. 9.
       21    -1     0     0   102   103  0.0000000000e+00  0.0000000000e+00 -1.7179808258e+00  1.7179808258e+00  0.0000000000e+00 0. 9.
        2     1     1     2   102     0  3.9138445037e+00 -4.1413113517e+00  1.2483063283e+01  1.3726048500e+01  3.3000000000e-01 0. 9.
       21     1     1     2   101   103 -3.9138445037e+00  4.1413113517e+00  6.3063816918e+00  8.4993581260e+00  0.0000000000e+00 0. 9.
#pdf    2   21  2.050743e-01  1.717981e-02  5.702533e+00  5.861871e-01  4.486079e+00
</event>
<event>
     4  9999  1.000000e+00  5.567101e+00  7.578882e-03  2.336120e-01
       21    -1     0     0   101   102  0.0000000000e+00  0.0000000000e+00  1.8155935023e+01  1.8155935023e+01  0.0000000000e+00 0. 9.
       21    -1     0     0   103   104  0.0000000000e+00  0.0000000000e+00 -1.9894816228e+00  1.9894816228e+00  0.0000000000e+00 0. 9.
       21     1     1     2   101   104  3.6591666884e+00 -4.1956061976e+00  1.1878588107e+01  1.3118439985e+01  0.0000000000e+00 0. 9.
       21     1     1     2   103   102 -3.6591666884e+00  4.1956061976e+00  4.2878652927e+00  7.0269766605e+00  0.0000000000e+00 0. 9.
#pdf   21   21  1.815594e-01  1.989482e-02  5.567101e+00  6.045328e-01  4.096347e+00
</event>
<event>
     4  9999  1.000000e+00  7.888508e+00  7.607013e-03  2.125002e-01
       21    -1     0     0   102   101  0.0000000000e+00  0.0000000000e+00  3.4109927246e+01  3.4109927246e+01  0.0000000000e+00 0. 9.
       21    -1     0     0   104   103  0.0000000000e+00  0.0000000000e+00 -5.0641999196e+00  5.0641999196e+00  0.0000000000e+00 0. 9.
       21     1     1     2   104   101 -4.8133289458e+00 -6.2498342189e+00  3.0189513171e+01  3.1203129150e+01  0.0000000000e+00 0. 9.
       21     1     1     2   102   103  4.8133289458e+00  6.2498342189e+00 -1.1437858439e+00  7.9709980154e+00  0.0000000000e+00 0. 9.
#pdf   21   21  3.410993e-01  5.064200e-02  7.888508e+00  2.095080e-01  2.151799e+00
</event>
<event>
     4  9999  1.000000e+00  6.534679e+00  7.591790e-03  2.234070e-01
        1    -1     0     0   101     0  0.0000000000e+00  0.0000000000e+00  4.4637322930e+00  4.4637322930e+00  0.0000000000e+00 0. 9.
       21    -1     0     0   102   103  0.0000000000e+00  0.0000000000e+00 -1.0026118019e+01  1.0026118019e+01  0.0000000000e+00 0. 9.
        1     1     1     2   102     0 -6.5156246699e+00  4.4354474872e-01 -1.2325363259e+00  6.6541823372e+00  3.3000000000e-01 0. 9.
       21     1     1     2   101   103  6.5156246699e+00 -4.4354474872e-01 -4.3298494002e+00  7.8356679748e+00  0.0000000000e+00 0. 9.
#pdf    1   21  4.463732e-02  1.002612e-01  6.534679e+00  4.278321e-01  1.148290e+00
</event>
<event>
     4  9999  1.000000e+00  6.077889e+00  7.585947e-03  2.279091e-01
        2    -1     0     0   101     0  0.0000000000e+00  0.0000000000e+00  3.6432198617e+01  3.6432198617e+01  0.0000000000e+00 0. 9.
        3    -1     0     0   102     0  0.0000000000e+00  0.0000000000e+00 -1.0310657171e+00  1.0310657171e+00  0.0000000000e+00 0. 9.
        2     1     1     2   102     0  1.0204577340e+00 -5.9768688372e+00  1.5276904478e+01  1.6439495294e+01  3.3000000000e-01 0. 9.
        3     1     1     2   101     0 -1.0204577340e+00  5.9768688372e+00  2.0124228422e+01  2.1023769040e+01  5.0000000000e-01 0. 9.
#pdf    2    3  3.643220e-01  1.031066e-02  6.077889e+00  3.797459e-01  1.794568e-01
</event>
<event>
     4  9999  1.000000e+00  5.274371e+00  7.574541e-03  2.372651e-01
       -2    -1     0     0     0   101  0.0000000000e+00  0.0000000000e+00  6.7536454185e+00  6.7536454185e+00  0.0000000000e+00 0. 9.
       21    -1     0     0   101   102  0.0000000000e+00  0.0000000000e+00 -5.2176119643e+00  5.2176119643e+00  0.0000000000e+00 0. 9.
       -2     1     1     2     0   103  2.3928956951e+00  4.6957504500e+00  3.5129577288e+00  6.3423807912e+00  3.3000000000e-01 0. 9.
       21     1     1     2   103   102 -2.3928956951e+00 -4.6957504500e+00 -1.9769242747e+00  5.6288765916e+00  0.0000000000e+00 0. 9.
#pdf   -2   21  6.753645e-02  5.217612e-02  5.274371e+00  1.116905e-01  2.098089e+00
</event>
<event>
     4  9999  1.000000e+00  1.062594e+01  7.631553e-03  1.972635e-01
       21    -1     0     0   102   101  0.0000000000e+00  0.0000000000e+00  1.8809942173e+01  1.8809942173e+01  0.0000000000e+00 0. 9.
       21    -1     0     0   104   103  0.0000000000e+00  0.0000000000e+00 -1.5234929794e+01  1.5234929794e+01  0.0000000000e+00 0. 9.
       21     1     1     2   104   101  1.0566807036e+01 -1.1194769780e+00 -1.1463673221e+01  1.5630945057e+01  0.0000000000e+00 0. 9.
       21     1     1     2   102   103 -1.0566807036e+01  1.1194769780e+00  1.5038685600e+01  1.8413926909e+01  0.0000000000e+00 0. 9.
#pdf   21   21  1.880994e-01  1.523493e-01  1.062594e+01  5.087657e-01  6.695309e-01
</event>
<event>
     4  9999  1.000000e+00  7.512957e+00  7.603063e-03  2.152222e-01
        2    -1     0     0   101     0  0.0000000000e+00  0.0000000000e+00  3.2287874580e+01  3.2287874580e+01  0.0000000000e+00 0. 9.
        2    -1     0     0   102     0  0.0000000000e+00  0.0000000000e+00 -1.8216487305e+01  1.8216487305e+01  0.0000000000e+00 0. 9.
        2     1     1     2   102     0 -5.7981186704e+00  4.7765989520e+00  3.1043420802e+01  3.1941148269e+01  3.3000000000e-01 0. 9.
        2     1     1     2   101     0  5.7981186704e+00 -4.7765989520e+00 -1.6972033527e+01  1.8563213615e+01  3.3000000000e-01 0. 9.
#pdf    2    2  3.228787e-01  1.821649e-01  7.512957e+00  4.230077e-01  5.919921e-01
</event>
<event>
     4  9999  1.000000e+00  5.055333e+00  7.571135e-03  2.402149e-01
       21    -1     0     0   102   101  0.0000000000e+00  0.0000000000e+00  4.0590188395e+00  4.0590188395e+00  0.0000000000e+00 0. 9.
       21    -1     0     0   101   103  0.0000000000e+00  0.0000000000e+00 -1.6933089717e+01  1.6933089717e+01  0.0000000000e+00 0. 9.
       21     1     1     2   104   103 -1.7410549030e+00 -4.7460634339e+00 -1.4755924108e+01  1.5597874425e+01  0.0000000000e+00 0. 9.
       21     1     1     2   102   104  1.7410549030e+00  4.7460634339e+00  1.8818532299e+00  5.3942341321e+00  0.0000000000e+00 0. 9.
#pdf   21   21  4.059019e-02  1.693309e-01  5.055333e+00  2.533836e+00  6.668203e-01
</event>
<event>
     4  9999  1.000000e+00  5.772311e+00  7.581794e-03  2.312261e-01
       21    -1     0     0   101   102  0.0000000000e+00  0.0000000000e+00  7.6688558242e+00  7.6688558242e+00  0.0000000000e+00 0. 9.
       21    -1     0     0   103   101  0.0000000000e+00  0.0000000000e+00 -4.3956278602e+00  4.3956278602e+00  0.0000000000e+00 0. 9.
       21     1     1     2   103   104 -4.6843713534e+00 -3.3728682138e+00  2.2853351844e+00  6.2082470850e+00  0.0000000000e+00 0. 9.
       21     1     1     2   104   102  4.6843713534e+00  3.3728682138e+00  9.8789277956e-01  5.8562365994e+00  0.0000000000e+00 0. 9.
#pdf   21   21  7.668856e-02  4.395628e-02  5.772311e+00  1.505457e+00  2.402540e+00
</event>
<event>
     4  9999  1.000000e+00  5.052207e+00  7.571085e-03  2.402585e-01
        3    -1     0     0   101     0  0.0000000000e+00  0.0000000000e+00  1.0518619982e+01  1.0518619982e+01  0.0000000000e+00 0. 9.
        1    -1     0     0   102     0  0.0000000000e+00  0.0000000000e+00 -3.0099898789e+00  3.0099898789e+00  0.0000000000e+00 0. 9.
        3     1     1     2   102     0 -8.8434731765e-01  4.9596457701e+00  6.7279413208e+00  8.4199376933e+00  5.0000000000e-01 0. 9.
        1     1     1     2   101     0  8.8434731765e-01 -4.9596457701e+00  7.8068878249e-01  5.1086721678e+00  3.3000000000e-01 0. 9.
#pdf    3    1  1.051862e-01  3.009990e-02  5.052207e+00  3.248108e-02  4.319150e-01
</event>
<event>
     4  9999  1.000000e+00  8.197062e+00  7.610123e-03  2.104069e-01
       21    -1     0     0   101   102  0.0000000000e+00  0.0000000000e+00  2.1459580020e+01  2.1459580020e+01  0.0000000000e+00 0. 9.
       21    -1     0     0   103   104  0.0000000000e+00  0.0000000000e+00 -3.9770789728e+00  3.9770789728e+00  0.0000000000e+00 0. 9.
       21     1     1     2   101   104 -3.7163500774e+00  7.3062011135e+00  2.8754020561e+00  8.6867582902e+00  0.0000000000e+00 0. 9.
       21     1     1     2   103   102  3.7163500774e+00 -7.3062011135e+00  1.4607098991e+01  1.6749900702e+01  0.0000000000e+00 0. 9.
#pdf   21   21  2.145958e-01  3.977079e-02  8.197062e+00  4.498117e-01  2.617483e+00
</event>
<event>
     4  9999  1.000000e+00  5.516654e+00  7.578150e-03  2.342197e-01
       21    -1     0     0   102   101  0.0000000000e+00  0.0000000000e+00  2.7033309475e+00  2.7033309475e+00  0.0000000000e+00 0. 9.
       21    -1     0     0   104   103  0.0000000000e+00  0.0000000000e+00 -1.4554295155e+01  1.4554295155e+01  0.0000000000e+00 0. 9.
       21     1     1     2   104   101  5.5047049040e+00 -3.6289418252e-01 -1.8188678900e+00  5.8087648144e+00  0.0000000000e+00 0. 9.
       21     1     1     2   102   103 -5.5047049040e+00  3.6289418252e-01 -1.0032096318e+01  1.1448861288e+01  0.0000000000e+00 0. 9.
#pdf   21   21  2.703331e-02  1.455430e-01  5.516654e+00  3.375379e+00  7.808927e-01
</event>
<event>
     4  9999  1.000000e+00  7.698959e+00  7.605043e-03  2.138488e-01
       21    -1     0     0   102   103  0.0000000000e+00  0.0000000000e+00  1.9359613073e+00  1.9359613073e+00  0.0000000000e+00 0. 9.
        1    -1     0     0   101     0  0.0000000000e+00  0.0000000000e+00 -6.3928001112e+01  6.3928001112e+01  0.0000000000e+00 0. 9.
       21     1     1     2   101   103 -1.0718027728e+00  7.6222786259e+00 -7.2225259504e+00  1.0555224950e+01  0.0000000000e+00 0. 9.
        1     1     1     2   102     0  1.0718027728e+00 -7.6222786259e+00 -5.4769513854e+01  5.5308737469e+01  3.3000000000e-01 0. 9.
#pdf   21    1  1.935961e-02  6.392800e-01  7.698959e+00  4.333857e+00  1.680857e-02
</event>
<event>
     4  9999  1.000000e+00  5.094884e+00  7.571761e-03  2.396674e-01
       21    -1     0     0   102   101  0.0000000000e+00  0.0000000000e+00  9.7536934947e+00  9.7536934947e+00  0.0000000000e+00 0. 9.
       21    -1     0     0   104   103  0.0000000000e+00  0.0000000000e+00 -1.2640229613e+01  1.2640229613e+01  0.0000000000e+00 0. 9.
       21     1     1     2   104   101  6.2239471381e-01  5.0567249301e+00  8.5053768859e+00  9.9145992441e+00  0.0000000000e+00 0. 9.
       21     1     1     2   102   103 -6.2239471381e-01 -5.0567249301e+00 -1.1391913005e+01  1.2479323864e+01  0.0000000000e+00 0. 9.
#pdf   21   21  9.753693e-02  1.264023e-01  5.094884e+00  1.204951e+00  9.212469e-01
</event>
<event>
     4  9999  1.000000e+00  5.013478e+00  7.570468e-03  2.408017e-01
       21    -1     0     0   102   101  0.0000000000e+00  0.0000000000e+00  2.9181260033e+00  2.9181260033e+00  0.0000000000e+00 0. 9.
       21    -1     0     0   103   102  0.0000000000e+00  0.0000000000e+00 -8.7621376441e+00  8.7621376441e+00  0.0000000000e+00 0. 9.
       21     1     1     2   104   101 -4.4233430584e+00  2.3598732521e+00 -2.1610866275e+00  5.4594194737e+00  0.0000000000e+00 0. 9.
       21     1     1     2   103   104  4.4233430584e+00 -2.3598732521e+00 -3.6829250134e+00  6.2208441736e+00  0.0000000000e+00 0. 9.
#pdf   21   21  2.918126e-02  8.762138e-02  5.013478e+00  3.177028e+00  1.338050e+00
</event>
<event>
     4  9999  1.000000e+00  6.537608e+00  7.591826e-03  2.233797e-01
       21    -1     0     0   102   101  0.0000000000e+00  0.0000000000e+00  8.9418711714e+00  8.9418711714e+00  0.0000000000e+00 0. 9.
       21    -1     0     0   104   103  0.0000000000e+00  0.0000000000e+00 -5.4664755329e+00  5.4664755329e+00  0.0000000000e+00 0. 9.
       21     1     1     2   104   101  6.1454427587e+00  2.2302141357e+00 -8.1563507652e-01  6.5882913088e+00  0.0000000000e+00 0. 9.
       21     1     1     2   102   103 -6.1454427587e+00 -2.2302141357e+00  4.2910307150e+00  7.8200553955e+00  0.0000000000e+00 0. 9.
#pdf   21   21  8.941871e-02  5.466476e-02  6.537608e+00  1.289610e+00  2.021420e+00
</event>
<event>
     4  9999  1.000000e+00  5.628569e+00  7.579765e-03  2.328830e-01
        1    -1     0     0   101     0  0.0000000000e+00  0.0000000000e+00  2.7378390294e+01  2.7378390294e+01  0.0000000000e+00 0. 9.
       21    -1     0     0   102   103  0.0000000000e+00  0.0000000000e+00 -1.3750845093e+00  1.3750845093e+00  0.0000000000e+00 0. 9.
        1     1     1     2   102     0 -1.1108392813e+00  5.5137121434e+00  1.8730431316e+01  1.9559471946e+01  3.3000000000e-01 0. 9.
       21     1     1     2   101   103  1.1108392813e+00 -5.5137121434e+00  7.2728744691e+00  9.1940028580e+00  0.0000000000e+00 0. 9.
#pdf    1   21  2.737839e-01  1.375085e-02  5.628569e+00  2.334640e-01  5.086057e+00
</event>
<event>
     4  9999  1.000000e+00  5.605647e+00  7.579437e-03  2.331534e-01
        2    -1     0     0   101     0  0.0000000000e+00  0.0000000000e+00  2.4684937425e+01  2.4684937425e+01  0.0000000000e+00 0. 9.
       21    -1     0     0   102   103  0.0000000000e+00  0.0000000000e+00 -2.3338926621e+00  2.3338926621e+00  0.0000000000e+00 0. 9.
        2     1     1     2   102     0  1.0174550415e-01 -5.6020744717e+00  2.0284795796e+01  2.1046981518e+01  3.3000000000e-01 0. 9.
       21     1     1     2   101   103 -1.0174550415e-01  5.6020744717e+00  2.0662489664e+00  5.9718485685e+00  0.0000000000e+00 0. 9.
#pdf    2   21  2.468494e-01  2.333893e-02  5.605647e+00  5.437118e-01  3.714920e+00
</event>
<event>
     4  9999  1.000000e+00  5.448971e+00  7.577157e-03  2.350490e-01
       21    -1     0     0   101   102  0.0000000000e+00  0.0000000000e+00  1.9203641417e+01  1.9203641417e+01  0.0000000000e+00 0. 9.
       -1    -1     0     0     0   101  0.0000000000e+00  0.0000000000e+00 -8.8056238784e+00  8.8056238784e+00  0.0000000000e+00 0. 9.
       21     1     1     2   103   102 -3.1291065958e+00  4.4598671942e+00  1.7911959794e+01  1.8722180085e+01  0.0000000000e+00 0. 9.
       -1     1     1     2     0   103  3.1291065958e+00 -4.4598671942e+00 -7.5139422556e+00  9.2870852100e+00  3.3000000000e-01 0. 9.
#pdf   21   -1  1.920364e-01  8.805624e-02  5.448971e+00  5.677180e-01  1.220481e-01
</event>
<event>
     4  9999  1.000000e+00  5.621877e+00  7.579669e-03  2.329618e-01
       21    -1     0     0   103   102  0.0000000000e+00  0.0000000000e+00  3.4431046229e+00  3.4431046229e+00  0.0000000000e+00 0. 9.
       -1    -1     0     0     0   101  0.0000000000e+00  0.0000000000e+00 -1.2509522841e+01  1.2509522841e+01  0.0000000000e+00 0. 9.
       21     1     1     2   103   101 -5.8190831310e-01 -5.5881074254e+00 -4.1752229001e-01  5.6338163571e+00  0.0000000000e+00 0. 9.
       -1     1     1     2     0   102  5.8190831310e-01  5.5881074254e+00 -8.6488959284e+00  1.0318811107e+01  3.3000000000e-01 0. 9.
#pdf   21   -1  3.443105e-02  1.250952e-01  5.621877e+00  2.869428e+00  8.550767e-02
</event>
<event>
     4  9999  1.000000e+00  5.105252e+00  7.571924e-03  2.395250e-01
        2    -1     0     0   101     0  0.0000000000e+00  0.0000000000e+00  2.3298824993e+01  2.3298824993e+01  0.0000000000e+00 0. 9.
       -1    -1     0     0     0   101  0.0000000000e+00  0.0000000000e+00 -2.4016498870e+00  2.4016498870e+00  0.0000000000e+00 0. 9.
        2     1     1     2   102     0 -3.2178283594e+00  3.9570762032e+00  1.9831635558e+01  2.0479637212e+01  3.3000000000e-01 0. 9.
       -1     1     1     2     0   102  3.2178283594e+00 -3.9570762032e+00  1.0655395482e+00  5.2208376682e+00  3.3000000000e-01 0. 9.
#pdf    2   -1  2.329882e-01  2.401650e-02  5.105252e+00  5.654149e-01  2.693741e-01
</event>
<event>
     4  9999  1.000000e+00  7.294775e+00  7.600679e-03  2.169009e-01
       21    -1     0     0   101   102  0.0000000000e+00  0.0000000000e+00  6.4670199850e+00  6.4670199850e+00  0.0000000000e+00 0. 9.
       21    -1     0     0   103   104  0.0000000000e+00  0.0000000000e+00 -1.2108106393e+01  1.2108106393e+01  0.0000000000e+00 0. 9.
       21     1     1     2   101   104 -5.2761853317e+00 -5.0374207552e+00 -8.0777936189e+00  1.0884139344e+01  0.0000000000e+00 0. 9.
       21     1     1     2   103   102  5.2761853317e+00  5.0374207552e+00  2.4367072108e+00  7.6909870336e+00  0.0000000000e+00 0. 9.
#pdf   21   21  6.467020e-02  1.210811e-01  7.294775e+00  1.742105e+00  9.261259e-01
</event>
<event>
     4  9999  1.000000e+00  6.137362e+00  7.586732e-03  2.272936e-01
       21    -1     0     0   102   103  0.0000000000e+00  0.0000000000e+00  2.0335831151e+00  2.0335831151e+00  0.0000000000e+00 0. 9.
        2    -1     0     0   101     0  0.0000000000e+00  0.0000000000e+00 -3.7059550185e+01  3.7059550185e+01  0.0000000000e+00 0. 9.
       21     1     1     2   101   103  5.6476454195e+00  2.3966869476e+00 -3.6874599201e+00  7.1580282041e+00  0.0000000000e+00 0. 9.
        2     1     1     2   102     0 -5.6476454195e+00 -2.3966869476e+00 -3.1338507150e+01  3.1935105096e+01  3.3000000000e-01 0. 9.
#pdf   21    2  2.033583e-02  3.705955e-01  6.137362e+00  4.093089e+00  3.700933e-01
</event>
<event>
     4  9999  1.000000e+00  5.708003e+00  7.580892e-03  2.319593e-01
       21    -1     0     0   102   101  0.0000000000e+00  0.0000000000e+00  8.8827256313e+00  8.8827256313e+00  0.0000000000e+00 0. 9.
       21    -1     0     0   104   103  0.0000000000e+00  0.0000000000e+00 -3.9656371103e+00  3.9656371103e+00  0.0000000000e+00 0. 9.
       21     1     1     2   104   101  3.7681627232e+00  4.2874521087e+00  6.9839564868e-01  5.7505697435e+00  0.0000000000e+00 0. 9.
       21     1     1     2   102   103 -3.7681627232e+00 -4.2874521087e+00  4.2186928723e+00  7.0977929981e+00  0.0000000000e+00 0. 9.
#pdf   21   21  8.882726e-02  3.965637e-02  5.708003e+00  1.310519e+00  2.594268e+00
</event>
<event>
     4  9999  1.000000e+00  5.367334e+00  7.575944e-03  2.360710e-01
        1    -1     0     0   101     0  0.0000000000e+00  0.0000000000e+00  1.9003911619e+01  1.9003911619e+01  0.0000000000e+00 0. 9.
       21    -1     0     0   102   103  0.0000000000e+00  0.0000000000e+00 -2.9740986848e+00  2.9740986848e+00  0.0000000000e+00 0. 9.
        1     1     1     2   102     0  4.8774598904e+00  2.2340360739e+00  1.5709679156e+01  1.6603717997e+01  3.3000000000e-01 0. 9.
       21     1     1     2   101   103 -4.8774598904e+00 -2.2340360739e+00  3.2013377891e-01  5.3742923067e+00  0.0000000000e+00 0. 9.
#pdf    1   21  1.900391e-01  2.974099e-02  5.367334e+00  3.222116e-01  3.160793e+00
</event>
<event>
     4  9999  1.000000e+00  9.671636e+00  7.623615e-03  2.018351e-01
       21    -1     0     0   102   101  0.0000000000e+00  0.0000000000e+00  3.1925553666e+01  3.1925553666e+01  0.0000000000e+00 0. 9.
        1    -1     0     0   101     0  0.0000000000e+00  0.0000000000e+00 -4.5562395185e+01  4.5562395185e+01  0.0000000000e+00 0. 9.
       21     1     1     2   102   103  9.5520481135e+00  1.5150669009e+00  3.0658536505e+01  3.2147829032e+01  0.0000000000e+00 0. 9.
        1     1     1     2   103     0 -9.5520481135e+00 -1.5150669009e+00 -4.4295378024e+01  4.5340119819e+01  3.3000000000e-01 0. 9.
#pdf   21    1  3.192555e-01  4.556240e-01  9.671636e+00  2.222224e-01  7.332243e-02
</event>
<event>
     4  9999  1.000000e+00  5.130205e+00  7.572315e-03  2.391842e-01
       21    -1     0     0   103   102  0.0000000000e+00  0.0000000000e+00  2.9308488008e+00  2.9308488008e+00  0.0000000000e+00 0. 9.
       -5    -1     0     0     0   101  0.0000000000e+00  0.0000000000e+00 -2.0298954051e+01  2.0298954051e+01  0.0000000000e+00 0. 9.
       21     1     1     2   103   101 -4.6325504275e+00  9.4291893361e-02 -1.5676807453e+01  1.6347223200e+01  0.0000000000e+00 0. 9.
       -5     1     1     2     0   102  4.6325504275e+00 -9.4291893361e-02 -1.6912977968e+00  6.8825796517e+00  4.8000000000e+00 0. 9.
#pdf   21   -5  2.930849e-02  2.029895e-01  5.130205e+00  3.176020e+00  4.843236e-04
</event>
<event>
     4  9999  1.000000e+00  5.678992e+00  7.580482e-03  2.322943e-01
       21    -1     0     0   102   103  0.0000000000e+00  0.0000000000e+00  5.3414247438e+00  5.3414247438e+00  0.0000000000e+00 0. 9.
        2    -1     0     0   101     0  0.0000000000e+00  0.0000000000e+00 -1.7538514835e+01  1.7538514835e+01  0.0000000000e+00 0. 9.
       21     1     1     2   101   103 -5.1289033833e+00  2.4344512229e+00  3.1643347108e+00  6.4996320537e+00  0.0000000000e+00 0. 9.
        2     1     1     2   102     0  5.1289033833e+00 -2.4344512229e+00 -1.5361424802e+01  1.6380307525e+01  3.3000000000e-01 0. 9.
#pdf   21    2  5.341425e-02  1.753851e-01  5.678992e+00  2.060591e+00  6.097878e-01
</event>
<event>
     4  9999  1.000000e+00  5.408289e+00  7.576555e-03  2.355553e-01
       21    -1     0     0   102   101  0.0000000000e+00  0.0000000000e+00  3.0368040508e+00  3.0368040508e+00  0.0000000000e+00 0. 9.
       21    -1     0     0   104   103  0.0000000000e+00  0.0000000000e+00 -9.9148992351e+00  9.9148992351e+00  0.0000000000e+00 0. 9.
       21     1     1     2   104   101  1.0254900312e+00  5.3101752597e+00 -4.5335012664e+00  7.0570691385e+00  0.0000000000e+00 0. 9.
       21     1     1     2   102   103 -1.0254900312e+00 -5.3101752597e+00 -2.3445939179e+00  5.8946341475e+00  0.0000000000e+00 0. 9.
#pdf   21   21  3.036804e-02  9.914899e-02  5.408289e+00  3.119440e+00  1.180508e+00
</event>
<event>
     4  9999  1.000000e+00  5.230318e+00  7.573867e-03  2.378427e-01
       21    -1     0     0   102   101  0.0000000000e+00  0.0000000000e+00  3.7756914546e+00  3.7756914546e+00  0.0000000000e+00 0. 9.
       21    -1     0     0   104   103  0.0000000000e+00  0.0000000000e+00 -2.1964502183e+01  2.1964502183e+01  0.0000000000e+00 0. 9.
       21     1     1     2   104   101  4.6192970340e+00  2.4532268022e+00 -1.9630082382e+01  2.0314929514e+01  0.0000000000e+00 0. 9.
       21     1     1     2   102   103 -4.6192970340e+00 -2.4532268022e+00  1.4412716537e+00  5.4252641236e+00  0.0000000000e+00 0. 9.
#pdf   21   21  3.775691e-02  2.196450e-01  5.230318e+00  2.675233e+00  4.864040e-01
</event>
<event>
     4  9999  1.000000e+00  6.389802e+00  7.589981e-03  2.247807e-01
       21    -1     0     0   103   102  0.0000000000e+00  0.0000000000e+00  1.6800671173e+01  1.6800671173e+01  0.0000000000e+00 0. 9.
       -1    -1     0     0     0   101  0.0000000000e+00  0.0000000000e+00 -1.1231998588e+01  1.1231998588e+01  0.0000000000e+00 0. 9.
       21     1     1     2   103   101  4.2475171322e-01  6.3747447583e+00  1.5189831100e+01  1.6478736408e+01  0.0000000000e+00 0. 9.
       -1     1     1     2     0   102 -4.2475171322e-01 -6.3747447583e+00 -9.6211585148e+00  1.1553933353e+01  3.3000000000e-01 0. 9.
#pdf   21   -1  1.680067e-01  1.123200e-01  6.389802e+00  6.464229e-01  9.585204e-02
</event>
<event>
     4  9999  1.000000e+00  5.312970e+00  7.575126e-03  2.367653e-01
       21    -1     0     0   102   101  0.0000000000e+00  0.0000000000e+00  4.5065969827e+00  4.5065969827e+00  0.0000000000e+00 0. 9.
        3    -1     0     0   101     0  0.0000000000e+00  0.0000000000e+00 -1.1196072181e+01  1.1196072181e+01  0.0000000000e+00 0. 9.
       21     1     1     2   102   103  3.5152037228e+00  3.9750603212e+00  1.8641979241e+00  5.6243217965e+00  0.0000000000e+00 0. 9.
        3     1     1     2   103     0 -3.5152037228e+00 -3.9750603212e+00 -8.5536731227e+00  1.0078347367e+01  5.0000000000e-01 0. 9.
#pdf   21    3  4.506597e-02  1.119607e-01  5.312970e+00  2.351263e+00  3.076289e-02
</event>
<event>
     4  9999  1.000000e+00  5.566216e+00  7.578869e-03  2.336226e-01
        2    -1     0     0   101     0  0.0000000000e+00  0.0000000000e+00  9.5380223324e+00  9.5380223324e+00  0.0000000000e+00 0. 9.
       21    -1     0     0   102   103  0.0000000000e+00  0.0000000000e+00 -4.5511080517e+00  4.5511080517e+00  0.0000000000e+00 0. 9.
        2     1     1     2   102     0 -4.2102853961e-01  5.5467683199e+00  6.2616810554e+00  8.3822105357e+00  3.3000000000e-01 0. 9.
       21     1     1     2   101   103  4.2102853961e-01 -5.5467683199e+00 -1.2747667747e+00  5.7069198483e+00  0.0000000000e+00 0. 9.
#pdf    2   21  9.538022e-02  4.551108e-02  5.566216e+00  6.254663e-01  2.337417e+00
</event>
<event>
     4  9999  1.000000e+00  6.643633e+00  7.593125e-03  2.224044e-01
        2    -1     0     0   101     0  0.0000000000e+00  0.0000000000e+00  4.1663179739e+01  4.1663179739e+01  0.0000000000e+00 0. 9.
       -1    -1     0     0     0   101  0.0000000000e+00  0.0000000000e+00 -1.0763174863e+00  1.0763174863e+00  0.0000000000e+00 0. 9.
        2     1     1     2   102     0  6.5939630680e+00 -7.4184162586e-01  2.2969529022e+01  2.3911061069e+01  3.3000000000e-01 0. 9.
       -1     1     1     2     0   102 -6.5939630680e+00  7.4184162586e-01  1.7617333230e+01  1.8828436156e+01  3.3000000000e-01 0. 9.
#pdf    2   -1  4.166318e-01  1.076317e-02  6.643633e+00  3.001912e-01  3.844274e-01
</event>
<event>
     4  9999  1.000000e+00  5.634465e+00  7.579849e-03  2.328138e-01
       21    -1     0     0   101   102  0.0000000000e+00  0.0000000000e+00  5.6453155104e+00  5.6453155104e+00  0.0000000000e+00 0. 9.
       21    -1     0     0   102   103  0.0000000000e+00  0.0000000000e+00 -6.2625775347e+00  6.2625775347e+00  0.0000000000e+00 0. 9.
       21     1     1     2   101   104  5.5622558711e+00  8.9916954447e-01  1.5931439702e+00  5.8553653990e+00  0.0000000000e+00 0. 9.
       21     1     1     2   104   103 -5.5622558711e+00 -8.9916954447e-01 -2.2104059945e+00  6.0525276461e+00  0.0000000000e+00 0. 9.
#pdf   21   21  5.645316e-02  6.262578e-02  5.634465e+00  1.969367e+00  1.804631e+00
</event>
<event>
     4  9999  1.000000e+00  5.264601e+00  7.574392e-03  2.373926e-01
        2    -1     0     0   101     0  0.0000000000e+00  0.0000000000e+00  9.6829261257e+00  9.6829261257e+00  0.0000000000e+00 0. 9.
       21    -1     0     0   102   103  0.0000000000e+00  0.0000000000e+00 -4.1522369431e+00  4.1522369431e+00  0.0000000000e+00 0. 9.
        2     1     1     2   102     0  4.3400565468e+00  2.9736187244e+00  6.6201652389e+00  8.4625047674e+00  3.3000000000e-01 0. 9.
       21     1     1     2   101   103 -4.3400565468e+00 -2.9736187244e+00 -1.0894760563e+00  5.3726583015e+00  0.0000000000e+00 0. 9.
#pdf    2   21  9.682926e-02  4.152237e-02  5.264601e+00  6.263002e-01  2.498330e+00
</event>
<event>
     4  9999  1.000000e+00  1.002580e+01  7.626647e-03  2.000631e-01
        1    -1     0     0   101     0  0.0000000000e+00  0.0000000000e+00  3.4632139270e+01  3.4632139270e+01  0.0000000000e+00 0. 9.
        1    -1     0     0   102     0  0.0000000000e+00  0.0000000000e+00 -1.1374738817e+01  1.1374738817e+01  0.0000000000e+00 0. 9.
        1     1     1     2   101     0 -6.2335586767e+00 -7.8505782618e+00 -8.2214341366e+00  1.2968797634e+01  3.3000000000e-01 0. 9.
        1     1     1     2   102     0  6.2335586767e+00  7.8505782618e+00  3.1478834590e+01  3.3038080452e+01  3.3000000000e-01 0. 9.
#pdf    1    1  3.463214e-01  1.137474e-01  1.002580e+01  1.456099e-01  3.777735e-01
</event>
<event>
     4  9999  1.000000e+00  6.528029e+00  7.591708e-03  2.234690e-01
       21    -1     0     0   102   101  0.0000000000e+00  0.0000000000e+00  1.2707682709e+01  1.2707682709e+01  0.0000000000e+00 0. 9.
       21    -1     0     0   104   103  0.0000000000e+00  0.0000000000e+00 -2.2656241175e+01  2.2656241175e+01  0.0000000000e+00 0. 9.
       21     1     1     2   104   101 -3.5654476957e+00  5.4683397877e+00 -2.1295252964e+01  2.2273368765e+01  0.0000000000e+00 0. 9.
       21     1     1     2   102   103  3.5654476957e+00 -5.4683397877e+00  1.1346694498e+01  1.3090555120e+01  0.0000000000e+00 0. 9.
#pdf   21   21  1.270768e-01  2.265624e-01  6.528029e+00  8.892298e-01  4.423700e-01
</event>
<event>
     4  9999  1.000000e+00  7.401201e+00  7.601851e-03  2.160726e-01
        2    -1     0     0   101     0  0.0000000000e+00  0.0000000000e+00  1.0050313615e+01  1.0050313615e+01  0.0000000000e+00 0. 9.
       21    -1     0     0   102   103  0.0000000000e+00  0.0000000000e+00 -6.5351078918e+00  6.5351078918e+00  0.0000000000e+00 0. 9.
        2     1     1     2   102     0 -7.3966523584e+00 -1.4803133596e-01  5.1355206049e+00  9.0119282770e+00  3.3000000000e-01 0. 9.
       21     1     1     2   101   103  7.3966523584e+00  1.4803133596e-01 -1.6203148816e+00  7.5734932298e+00  0.0000000000e+00 0. 9.
#pdf    2   21  1.005031e-01  6.535108e-02  7.401201e+00  6.245697e-01  1.724799e+00
</event>
<event>
     4  9999  1.000000e+00  7.901031e+00  7.607142e-03  2.124128e-01
       21    -1     0     0   102   103  0.0000000000e+00  0.0000000000e+00  1.5668260263e+01  1.5668260263e+01  0.0000000000e+00 0. 9.
        2    -1     0     0   101     0  0.0000000000e+00  0.0000000000e+00 -2.5963667274e+01  2.5963667274e+01  0.0000000000e+00 0. 9.
       21     1     1     2   101   103  4.4182171940e+00  6.5496018670e+00 -2.4298405748e+01  2.5550546955e+01  0.0000000000e+00 0. 9.
        2     1     1     2   102     0 -4.4182171940e+00 -6.5496018670e+00  1.4002998737e+01  1.6081380582e+01  3.3000000000e-01 0. 9.
#pdf   21    2  1.566826e-01  2.596367e-01  7.901031e+00  6.782082e-01  5.053752e-01
</event>
<event>
     4  9999  1.000000e+00  5.252737e+00  7.574210e-03  2.375478e-01
       21    -1     0     0   101   102  0.0000000000e+00  0.0000000000e+00  8.9090264924e+00  8.9090264924e+00  0.0000000000e+00 0. 9.
       21    -1     0     0   103   104  0.0000000000e+00  0.0000000000e+00 -4.0085778884e+00  4.0085778884e+00  0.0000000000e+00 0. 9.
       21     1     1     2   101   104 -5.0276183993e+00  1.5212823653e+00 -6.2979850324e-01  5.2903584905e+00  0.0000000000e+00 0. 9.
       21     1     1     2   103   102  5.0276183993e+00 -1.5212823653e+00  5.5302471073e+00  7.6272458903e+00  0.0000000000e+00 0. 9.
#pdf   21   21  8.909026e-02  4.008578e-02  5.252737e+00  1.313712e+00  2.563190e+00
</event>
<event>
     4  9999  1.000000e+00  5.681008e+00  7.580511e-03  2.322710e-01
       21    -1     0     0   102   101  0.0000000000e+00  0.0000000000e+00  3.6453228290e+01  3.6453228290e+01  0.0000000000e+00 0. 9.
       21    -1     0     0   104   103  0.0000000000e+00  0.0000000000e+00 -1.8506778002e+00  1.8506778002e+00  0.0000000000e+00 0. 9.
       21     1     1     2   104   101  2.4931724750e+00  5.1046980737e+00  3.1133280819e+01  3.1647354170e+01  0.0000000000e+00 0. 9.
       21     1     1     2   102   103 -2.4931724750e+00 -5.1046980737e+00  3.4692696705e+00  6.6565519198e+00  0.0000000000e+00 0. 9.
#pdf   21   21  3.645323e-01  1.850678e-02  5.681008e+00  2.112874e-01  4.290240e+00
</event>
<event>
     4  9999  1.000000e+00  6.371782e+00  7.589754e-03  2.249550e-01
       -3    -1     0     0     0   101  0.0000000000e+00  0.0000000000e+00  1.7546344279e+00  1.7546344279e+00  0.0000000000e+00 0. 9.
       21    -1     0     0   103   102  0.0000000000e+00  0.0000000000e+00 -3.2187556532e+01  3.2187556532e+01  0.0000000000e+00 0. 9.
       -3     1     1     2     0   102  1.9997646018e-01  6.3615882959e+00 -6.2448108421e+00  8.9307031462e+00  5.0000000000e-01 0. 9.
       21     1     1     2   103   101 -1.9997646018e-01 -6.3615882959e+00 -2.4188111262e+01  2.5011487814e+01  0.0000000000e+00 0. 9.
#pdf   -3   21  1.754634e-02  3.218756e-01  6.371782e+00  1.386010e-01  2.606844e-01
</event>
<event>
     4  9999  1.000000e+00  5.896349e+00  7.583505e-03  2.298474e-01
       21    -1     0     0   102   101  0.0000000000e+00  0.0000000000e+00  2.3213735676e+00  2.3213735676e+00  0.0000000000e+00 0. 9.
       21    -1     0     0   103   102  0.0000000000e+00  0.0000000000e+00 -3.1688745660e+01  3.1688745660e+01  0.0000000000e+00 0. 9.
       21     1     1     2   104   101 -1.8513587544e+00 -5.5981611209e+00 -2.3345071824e+00  6.3416765100e+00  0.0000000000e+00 0. 9.
       21     1     1     2   103   104  1.8513587544e+00  5.5981611209e+00 -2.7032864910e+01  2.7668442718e+01  0.0000000000e+00 0. 9.
#pdf   21   21  2.321374e-02  3.168875e-01  5.896349e+00  3.748600e+00  2.777471e-01
</event>
<event>
     4  9999  1.000000e+00  6.207035e+00  7.587642e-03  2.265842e-01
       21    -1     0     0   102   103  0.0000000000e+00  0.0000000000e+00  2.0473525489e+00  2.0473525489e+00  0.0000000000e+00 0. 9.
        2    -1     0     0   101     0  0.0000000000e+00  0.0000000000e+00 -1.9061193333e+01  1.9061193333e+01  0.0000000000e+00 0. 9.
       21     1     1     2   101   103  5.8730752584e+00  1.9951277572e+00 -7.3099167710e+00  9.5868884920e+00  0.0000000000e+00 0. 9.
        2     1     1     2   102     0 -5.8730752584e+00 -1.9951277572e+00 -9.7039240126e+00  1.1521657389e+01  3.3000000000e-01 0. 9.
#pdf   21    2  2.047353e-02  1.906119e-01  6.207035e+00  4.081793e+00  5.942190e-01
</event>
<event>
     4  9999  1.000000e+00  7.379954e+00  7.601618e-03  2.162365e-01
       21    -1     0     0   102   101  0.0000000000e+00  0.0000000000e+00  1.1832951381e+01  1.1832951381e+01  0.0000000000e+00 0. 9.
       21    -1     0     0   103   102  0.0000000000e+00  0.0000000000e+00 -6.4129030998e+00  6.4129030998e+00  0.0000000000e+00 0. 9.
       21     1     1     2   104   101 -7.1966110810e+00  1.6347825961e+00  7.5569736780e+00  1.0562744736e+01  0.0000000000e+00 0. 9.
       21     1     1     2   103   104  7.1966110810e+00 -1.6347825961e+00 -2.1369253973e+00  7.6831097443e+00  0.0000000000e+00 0. 9.
#pdf   21   21  1.183295e-01  6.412903e-02  7.379954e+00  9.489807e-01  1.754652e+00
</event>
<event>
     4  9999  1.000000e+00  5.205911e+00  7.573491e-03  2.381660e-01
       21    -1     0     0   102   103  0.0000000000e+00  0.0000000000e+00  1.1463477793e+00  1.1463477793e+00  0.0000000000e+00 0. 9.
        2    -1     0     0   101     0  0.0000000000e+00  0.0000000000e+00 -3.8751187383e+01  3.8751187383e+01  0.0000000000e+00 0. 9.
       21     1     1     2   101   103  1.2872644387e+00  5.0409576205e+00 -6.3419267852e+00  8.2029469592e+00  0.0000000000e+00 0. 9.
        2     1     1     2   102     0 -1.2872644387e+00 -5.0409576205e+00 -3.1262912819e+01  3.1694588203e+01  3.3000000000e-01 0. 9.
#pdf   21    2  1.146348e-02  3.875119e-01  5.205911e+00  5.525621e+00  3.587363e-01
</event>
<event>
     4  9999  1.000000e+00  5.369646e+00  7.575979e-03  2.360417e-01
       21    -1     0     0   102   101  0.0000000000e+00  0.0000000000e+00  1.7575522196e+00  1.7575522196e+00  0.0000000000e+00 0. 9.
        1    -1     0     0   101     0  0.0000000000e+00  0.0000000000e+00 -1.6453452554e+01  1.6453452554e+01  0.0000000000e+00 0. 9.
       21     1     1     2   102   103  1.5634891877e+00 -5.1316989747e+00 -6.8486925696e+00  8.6996219872e+00  0.0000000000e+00 0. 9.
        1     1     1     2   103     0 -1.5634891877e+00  5.1316989747e+00 -7.8472077651e+00  9.5113827867e+00  3.3000000000e-01 0. 9.
#pdf   21    1  1.757552e-02  1.645345e-01  5.369646e+00  4.385610e+00  3.470522e-01
</event>
<event>
     4  9999  1.000000e+00  9.804962e+00  7.624769e-03  2.011568e-01
        2    -1     0     0   101     0  0.0000000000e+00  0.0000000000e+00  2.4903492574e+01  2.4903492574e+01  0.0000000000e+00 0. 9.
       21    -1     0     0   102   103  0.0000000000e+00  0.0000000000e+00 -6.4416899346e+00  6.4416899346e+00  0.0000000000e+00 0. 9.
        2     1     1     2   102     0 -4.1014018616e+00 -8.9041089445e+00  1.9151884424e+01  2.1517626038e+01  3.3000000000e-01 0. 9.
       21     1     1     2   101   103  4.1014018616e+00  8.9041089445e+00 -6.9008178383e-01  9.8275564712e+00  0.0000000000e+00 0. 9.
#pdf    2   21  2.490349e-01  6.441690e-02  9.804962e+00  5.056811e-01  1.727681e+00
</event>
<event>
     4  9999  1.000000e+00  5.685582e+00  7.580576e-03  2.322180e-01
       21    -1     0     0   101   102  0.0000000000e+00  0.0000000000e+00  9.4374559213e+00  9.4374559213e+00  0.0000000000e+00 0. 9.
       21    -1     0     0   103   104  0.0000000000e+00  0.0000000000e+00 -3.7426591317e+00  3.7426591317e+00  0.0000000000e+00 0. 9.
       21     1     1     2   101   104  5.6818667680e+00  2.0549990008e-01  4.7664855236e+00  7.4192468907e+00  0.0000000000e+00 0. 9.
       21     1     1     2   103   102 -5.6818667680e+00 -2.0549990008e-01  9.2831126600e-01  5.7608681624e+00  0.0000000000e+00 0. 9.
#pdf   21   21  9.437456e-02  3.742659e-02  5.685582e+00  1.235146e+00  2.705563e+00
</event>
<event>
     4  9999  1.000000e+00  6.603591e+00  7.592637e-03  2.227699e-01
       21    -1     0     0   102   101  0.0000000000e+00  0.0000000000e+00  2.8748372040e+00  2.8748372040e+00  0.0000000000e+00 0. 9.
        2    -1     0     0   101     0  0.0000000000e+00  0.0000000000e+00 -5.3121706718e+01  5.3121706718e+01  0.0000000000e+00 0. 9.
       21     1     1     2   102   103 -6.5238640214e+00  1.0154140449e+00 -1.4575177312e+00  6.7613774772e+00  0.0000000000e+00 0. 9.
        2     1     1     2   103     0  6.5238640214e+00 -1.0154140449e+00 -4.8789351783e+01  4.9235166445e+01  3.3000000000e-01 0. 9.
#pdf   21    2  2.874837e-02  5.312171e-01  6.603591e+00  3.289835e+00  1.624258e-01
</event>
<event>
     4  9999  1.000000e+00  5.008685e+00  7.570391e-03  2.408694e-01
        2    -1     0     0   101     0  0.0000000000e+00  0.0000000000e+00  1.4351026801e+01  1.4351026801e+01  0.0000000000e+00 0. 9.
       21    -1     0     0   102   103  0.0000000000e+00  0.0000000000e+00 -5.4063840676e+00  5.4063840676e+00  0.0000000000e+00 0. 9.
        2     1     1     2   102     0  1.4343489077e+00 -4.7970790791e+00  1.2597205932e+01  1.3559786937e+01  3.3000000000e-01 0. 9.
       21     1     1     2   101   103 -1.4343489077e+00  4.7970790791e+00 -3.6525631985e+00  6.1976239317e+00  0.0000000000e+00 0. 9.
#pdf    2   21  1.435103e-01  5.406384e-02  5.008685e+00  6.294703e-01  2.037135e+00
</event>
<event>
     4  9999  1.000000e+00  5.400821e+00  7.576444e-03  2.356488e-01
       21    -1     0     0   102   101  0.0000000000e+00  0.0000000000e+00  1.0185251774e+01  1.0185251774e+01  0.0000000000e+00 0. 9.
       21    -1     0     0   103   102  0.0000000000e+00  0.0000000000e+00 -2.0021830806e+01  2.0021830806e+01  0.0000000000e+00 0. 9.
       21     1     1     2   104   101 -3.1504284562e+00  4.3867606198e+00  9.0634171880e+00  1.0550563934e+01  0.0000000000e+00 0. 9.
       21     1     1     2   103   104  3.1504284562e+00 -4.3867606198e+00 -1.8899996220e+01  1.9656518647e+01  0.0000000000e+00 0. 9.
#pdf   21   21  1.018525e-01  2.002183e-01  5.400821e+00  1.148922e+00  5.407411e-01
</event>
<event>
     4  9999  1.000000e+00  5.849649e+00  7.582865e-03  2.303611e-01
       -2    -1     0     0     0   101  0.0000000000e+00  0.0000000000e+00  1.4575092290e+01  1.4575092290e+01  0.0000000000e+00 0. 9.
        2    -1     0     0   101     0  0.0000000000e+00  0.0000000000e+00 -3.2332992387e+01  3.2332992387e+01  0.0000000000e+00 0. 9.
       -2     1     1     2     0   102 -1.5885198280e+00 -5.6291289604e+00  1.3704926412e+01  1.4904509252e+01  3.3000000000e-01 0. 9.
        2     1     1     2   102     0  1.5885198280e+00  5.6291289604e+00 -3.1462826508e+01  3.2003575425e+01  3.3000000000e-01 0. 9.
#pdf   -2    2  1.457509e-01  3.233299e-01  5.849649e+00  4.652602e-02  4.407836e-01
</event>
<event>
     4  9999  1.000000e+00  5.470602e+00  7.577476e-03  2.347822e-01
       21    -1     0     0   103   102  0.0000000000e+00  0.0000000000e+00  1.9029713712e+01  1.9029713712e+01  0.0000000000e+00 0. 9.
       -2    -1     0     0     0   101  0.0000000000e+00  0.0000000000e+00 -8.0530572958e+00  8.0530572958e+00  0.0000000000e+00 0. 9.
       21     1     1     2   103   101  6.5090790057e-01  5.4307616178e+00  1.7632589866e+01  1.8461448433e+01  0.0000000000e+00 0. 9.
       -2     1     1     2     0   102 -6.5090790057e-01 -5.4307616178e+00 -6.6559334503e+00  8.6213225748e+00  3.3000000000e-01 0. 9.
#pdf   21   -2  1.902971e-01  8.053057e-02  5.470602e+00  5.734954e-01  9.389879e-02
</event>
<event>
     4  9999  1.000000e+00  7.137865e+00  7.598921e-03  2.181564e-01
        2    -1     0     0   101     0  0.0000000000e+00  0.0000000000e+00  2.7404626686e+01  2.7404626686e+01  0.0000000000e+00 0. 9.
       21    -1     0     0   102   103  0.0000000000e+00  0.0000000000e+00 -2.0191597481e+00  2.0191597481e+00  0.0000000000e+00 0. 9.
        2     1     1     2   102     0 -6.3235803952e+00  3.3032289807e+00  1.6838522785e+01  1.8290536905e+01  3.3000000000e-01 0. 9.
       21     1     1     2   101   103  6.3235803952e+00 -3.3032289807e+00  8.5469441531e+00  1.1133249529e+01  0.0000000000e+00 0. 9.
#pdf    2   21  2.740463e-01  2.019160e-02  7.137865e+00  4.934846e-01  4.184132e+00
</event>
<event>
     4  9999  1.000000e+00  6.807231e+00  7.595089e-03  2.209458e-01
        2    -1     0     0   101     0  0.0000000000e+00  0.0000000000e+00  2.0465163453e+01  2.0465163453e+01  0.0000000000e+00 0. 9.
        1    -1     0     0   102     0  0.0000000000e+00  0.0000000000e+00 -2.4341031146e+01  2.4341031146e+01  0.0000000000e+00 0. 9.
        2     1     1     2   102     0  6.2715612138e+00  2.6449538231e+00  1.9395408837e+01  2.0557700375e+01  3.3000000000e-01 0. 9.
        1     1     1     2   101     0 -6.2715612138e+00 -2.6449538231e+00 -2.3271276529e+01  2.4248494223e+01  3.3000000000e-01 0. 9.
#pdf    2    1  2.046516e-01  2.434103e-01  6.807231e+00  5.768416e-01  2.575607e-01
</event>
<event>
     4  9999  1.000000e+00  7.380271e+00  7.601622e-03  2.162341e-01
       21    -1     0     0   102   101  0.0000000000e+00  0.0000000000e+00  1.7189931028e+00  1.7189931028e+00  0.0000000000e+00 0. 9.
        2    -1     0     0   101     0  0.0000000000e+00  0.0000000000e+00 -3.4326671083e+01  3.4326671083e+01  0.0000000000e+00 0. 9.
       21     1     1     2   102   103 -6.8954874756e+00 -2.6211462900e+00 -1.1300053942e+01  1.3494790643e+01  0.0000000000e+00 0. 9.
        2     1     1     2   103     0  6.8954874756e+00  2.6211462900e+00 -2.1307624038e+01  2.2550873543e+01  3.3000000000e-01 0. 9.
#pdf   21    2  1.718993e-02  3.432667e-01  7.380271e+00  4.647183e+00  3.954418e-01
</event>
<event>
     4  9999  1.000000e+00  6.889094e+00  7.596054e-03  2.202361e-01
       21    -1     0     0   102   101  0.0000000000e+00  0.0000000000e+00  4.1465113327e+00  4.1465113327e+00  0.0000000000e+00 0. 9.
       21    -1     0     0   104   103  0.0000000000e+00  0.0000000000e+00 -1.5020284387e+01  1.5020284387e+01  0.0000000000e+00 0. 9.
       21     1     1     2   104   101  3.9391617200e+00 -5.6517804300e+00 -1.0112028408e+01  1.2235715574e+01  0.0000000000e+00 0. 9.
       21     1     1     2   102   103 -3.9391617200e+00  5.6517804300e+00 -7.6174464668e-01  6.9310801461e+00  0.0000000000e+00 0. 9.
#pdf   21   21  4.146511e-02  1.502028e-01  6.889094e+00  2.524618e+00  7.287634e-01
</event>
<event>
     4  9999  1.000000e+00  5.157394e+00  7.572739e-03  2.388158e-01
        1    -1     0     0   101     0  0.0000000000e+00  0.0000000000e+00  6.8990833255e+00  6.8990833255e+00  0.0000000000e+00 0. 9.
       21    -1     0     0   102   101  0.0000000000e+00  0.0000000000e+00 -7.1790180909e+00  7.1790180909e+00  0.0000000000e+00 0. 9.
        1     1     1     2   103     0  3.8263753409e+00  3.4537409494e+00  4.6467911748e+00  6.9477365391e+00  3.3000000000e-01 0. 9.
       21     1     1     2   102   103 -3.8263753409e+00 -3.4537409494e+00 -4.9267259402e+00  7.1303648774e+00  0.0000000000e+00 0. 9.
#pdf    1   21  6.899083e-02  7.179018e-02  5.157394e+00  4.138176e-01  1.604777e+00
</event>
<event>
     4  9999  1.000000e+00  5.741055e+00  7.581357e-03  2.315809e-01
       21    -1     0     0   102   101  0.0000000000e+00  0.0000000000e+00  6.1675795966e+00  6.1675795966e+00  0.0000000000e+00 0. 9.
       21    -1     0     0   103   102  0.0000000000e+00  0.0000000000e+00 -5.3885749183e+00  5.3885749183e+00  0.0000000000e+00 0. 9.
       21     1     1     2   104   101 -2.6248972037e+00  5.1058424814e+00 -1.3586054710e-01  5.7426623497e+00  0.0000000000e+00 0. 9.
       21     1     1     2   103   104  2.6248972037e+00 -5.1058424814e+00  9.1486522546e-01  5.8134921652e+00  0.0000000000e+00 0. 9.
#pdf   21   21  6.167580e-02  5.388575e-02  5.741055e+00  1.827725e+00  2.045915e+00
</event>
<event>
     4  9999  1.000000e+00  5.178511e+00  7.573068e-03  2.385318e-01
        1    -1     0     0   101     0  0.0000000000e+00  0.0000000000e+00  3.2042161872e+00  3.2042161872e+00  0.0000000000e+00 0. 9.
        1    -1     0     0   102     0  0.0000000000e+00  0.0000000000e+00 -3.0973895792e+01  3.0973895792e+01  0.0000000000e+00 0. 9.
        1     1     1     2   102     0 -4.6977823102e+00 -2.1721866116e+00  7.0600152561e-01  5.2340129407e+00  3.3000000000e-01 0. 9.
        1     1     1     2   101     0  4.6977823102e+00  2.1721866116e+00 -2.8475681130e+01  2.8944099038e+01  3.3000000000e-01 0. 9.
#pdf    1    1  3.204216e-02  3.097390e-01  5.178511e+00  4.311069e-01  2.010337e-01
</event>
<event>
     4  9999  1.000000e+00  5.052870e+00  7.571096e-03  2.402492e-01
        1    -1     0     0   101     0  0.0000000000e+00  0.0000000000e+00  1.3104549464e+01  1.3104549464e+01  0.0000000000e+00 0. 9.
       21    -1     0     0   102   101  0.0000000000e+00  0.0000000000e+00 -2.0279015978e+00  2.0279015978e+00  0.0000000000e+00 0. 9.
        1     1     1     2   103     0 -1.4832394284e+00 -4.8248529986e+00  7.0415876767e+00  8.6701823896e+00  3.3000000000e-01 0. 9.
       21     1     1     2   102   103  1.4832394284e+00  4.8248529986e+00  4.0350601897e+00  6.4622686724e+00  0.0000000000e+00 0. 9.
#pdf    1   21  1.310455e-01  2.027902e-02  5.052870e+00  3.776188e-01  3.989610e+00
</event>
<event>
     4  9999  1.000000e+00  5.232273e+00  7.573897e-03  2.378169e-01
        2    -1     0     0   101     0  0.0000000000e+00  0.0000000000e+00  1.5815261677e+01  1.5815261677e+01  0.0000000000e+00 0. 9.
       21    -1     0     0   102   103  0.0000000000e+00  0.0000000000e+00 -1.7317693514e+00  1.7317693514e+00  0.0000000000e+00 0. 9.
        2     1     1     2   102     0 -3.8548071644e+00  3.5302612717e+00  7.2299234505e+00  8.9276523242e+00  3.3000000000e-01 0. 9.
       21     1     1     2   101   103  3.8548071644e+00 -3.5302612717e+00  6.8535688748e+00  8.6193787040e+00  0.0000000000e+00 0. 9.
#pdf    2   21  1.581526e-01  1.731769e-02  5.232273e+00  6.227760e-01  4.402714e+00
</event>
<event>
     4  9999  1.000000e+00  6.373858e+00  7.589780e-03  2.249349e-01
       21    -1     0     0   101   102  0.0000000000e+00  0.0000000000e+00  1.2261934928e+01  1.2261934928e+01  0.0000000000e+00 0. 9.
       21    -1     0     0   103   104  0.0000000000e+00  0.0000000000e+00 -2.0685998030e+01  2.0685998030e+01  0.0000000000e+00 0. 9.
       21     1     1     2   101   104  1.0757956377e+00  6.2824139586e+00  1.0885119793e+01  1.2613956330e+01  0.0000000000e+00 0. 9.
       21     1     1     2   103   102 -1.0757956377e+00 -6.2824139586e+00 -1.9309182895e+01  2.0333976627e+01  0.0000000000e+00 0. 9.
#pdf   21   21  1.226193e-01  2.068600e-01  6.373858e+00  9.279695e-01  5.005181e-01
</event>
<event>
     4  9999  1.000000e+00  5.997314e+00  7.584872e-03  2.287581e-01
        1    -1     0     0   101     0  0.0000000000e+00  0.0000000000e+00  1.3142328884e+01  1.3142328884e+01  0.0000000000e+00 0. 9.
       21    -1     0     0   102   103  0.0000000000e+00  0.0000000000e+00 -4.2132827107e+00  4.2132827107e+00  0.0000000000e+00 0. 9.
        1     1     1     2   102     0  5.3020012836e+00  2.7966397126e+00  9.6012630496e+00  1.1323672701e+01  3.3000000000e-01 0. 9.
       21     1     1     2   101   103 -5.3020012836e+00 -2.7966397126e+00 -6.7221687587e-01  6.0319388940e+00  0.0000000000e+00 0. 9.
#pdf    1   21  1.314233e-01  4.213283e-02  5.997314e+00  3.732616e-01  2.484017e+00
</event>
<event>
     4  9999  1.000000e+00  5.103526e+00  7.571897e-03  2.395487e-01
       -2    -1     0     0     0   101  0.0000000000e+00  0.0000000000e+00  1.9974098435e+01  1.9974098435e+01  0.0000000000e+00 0. 9.
       21    -1     0     0   101   102  0.0000000000e+00  0.0000000000e+00 -4.9423748303e+00  4.9423748303e+00  0.0000000000e+00 0. 9.
       -2     1     1     2     0   103 -4.6241365467e+00  2.1561490557e+00  1.8204136896e+01  1.8908493268e+01  3.3000000000e-01 0. 9.
       21     1     1     2   103   102  4.6241365467e+00 -2.1561490557e+00 -3.1724132912e+00  6.0079799969e+00  0.0000000000e+00 0. 9.
#pdf   -2   21  1.997410e-01  4.942375e-02  5.103526e+00  2.974908e-02  2.187117e+00
</event>
<event>
     4  9999  1.000000e+00  6.927699e+00  7.596506e-03  2.199058e-01
        2    -1     0     0   101     0  0.0000000000e+00  0.0000000000e+00  1.5815485315e+00  1.5815485315e+00  0.0000000000e+00 0. 9.
       21    -1     0     0   102   101  0.0000000000e+00  0.0000000000e+00 -3.0551630511e+01  3.0551630511e+01  0.0000000000e+00 0. 9.
        2     1     1     2   103     0 -8.9022843259e-01  6.8663267143e+00 -1.3174513440e+01  1.4886761018e+01  3.3000000000e-01 0. 9.
       21     1     1     2   102   103  8.9022843259e-01 -6.8663267143e+00 -1.5795568539e+01  1.7246418024e+01  0.0000000000e+00 0. 9.
#pdf    2   21  1.581549e-02  3.055163e-01  6.927699e+00  5.654561e-01  2.774588e-01
</event>
<event>
     4  9999  1.000000e+00  5.656010e+00  7.580156e-03  2.325616e-01
       -2    -1     0     0     0   101  0.0000000000e+00  0.0000000000e+00  1.8929009445e+01  1.8929009445e+01  0.0000000000e+00 0. 9.
       -3    -1     0     0     0   102  0.0000000000e+00  0.0000000000e+00 -3.3970477203e+00  3.3970477203e+00  0.0000000000e+00 0. 9.
       -2     1     1     2     0   102 -2.3954188149e+00 -5.1149928067e+00  1.5663855272e+01  1.6654322103e+01  3.3000000000e-01 0. 9.
       -3     1     1     2     0   101  2.3954188149e+00  5.1149928067e+00 -1.3189354773e-01  5.6717350625e+00  5.0000000000e-01 0. 9.
#pdf   -2   -3  1.892901e-01  3.397048e-02  5.656010e+00  3.221079e-02  8.838509e-02
</event>
<event>
     4  9999  1.000000e+00  5.030408e+00  7.570738e-03  2.405634e-01
        1    -1     0     0   101     0  0.0000000000e+00  0.0000000000e+00  1.0823839171e+01  1.0823839171e+01  0.0000000000e+00 0. 9.
        2    -1     0     0   102     0  0.0000000000e+00  0.0000000000e+00 -1.4139996511e+01  1.4139996511e+01  0.0000000000e+00 0. 9.
        1     1     1     2   102     0 -1.0098126241e+00 -4.9261830756e+00  9.7413153654e+00  1.0967639959e+01  3.3000000000e-01 0. 9.
        2     1     1     2   101     0  1.0098126241e+00  4.9261830756e+00 -1.3057472706e+01  1.3996195722e+01  3.3000000000e-01 0. 9.
#pdf    1    2  1.082384e-01  1.414000e-01  5.030408e+00  3.937862e-01  6.298553e-01
</event>
<event>
     4  9999  1.000000e+00  6.621423e+00  7.592854e-03  2.226067e-01
       21    -1     0     0   101   102  0.0000000000e+00  0.0000000000e+00  1.2780416149e+01  1.2780416149e+01  0.0000000000e+00 0. 9.
       21    -1     0     0   102   103  0.0000000000e+00  0.0000000000e+00 -6.0702018051e+00  6.0702018051e+00  0.0000000000e+00 0. 9.
       21     1     1     2   101   104  3.9545769647e+00 -5.3107973743e+00  9.5705384947e+00  1.1637802834e+01  0.0000000000e+00 0. 9.
       21     1     1     2   104   103 -3.9545769647e+00  5.3107973743e+00 -2.8603241503e+00  7.2128151207e+00  0.0000000000e+00 0. 9.
#pdf   21   21  1.278042e-01  6.070202e-02  6.621423e+00  8.819881e-01  1.848093e+00
</event>
<event>
     4  9999  1.000000e+00  6.254727e+00  7.588259e-03  2.261057e-01
        2    -1     0     0   101     0  0.0000000000e+00  0.0000000000e+00  1.1821927595e+01  1.1821927595e+01  0.0000000000e+00 0. 9.
        2    -1     0     0   102     0  0.0000000000e+00  0.0000000000e+00 -8.6714715913e+00  8.6714715913e+00  0.0000000000e+00 0. 9.
        2     1     1     2   101     0 -2.5529968790e+00 -5.7063351510e+00 -6.4781767791e+00  9.0086474179e+00  3.3000000000e-01 0. 9.
        2     1     1     2   102     0  2.5529968790e+00  5.7063351510e+00  9.6286327829e+00  1.1484751769e+01  3.3000000000e-01 0. 9.
#pdf    2    2  1.182193e-01  8.671472e-02  6.254727e+00  6.278047e-01  6.214636e-01
</event>
<event>
     4  9999  1.000000e+00  5.819503e+00  7.582449e-03  2.306961e-01
       21    -1     0     0   102   103  0.0000000000e+00  0.0000000000e+00  1.4118537224e+01  1.4118537224e+01  0.0000000000e+00 0. 9.
        2    -1     0     0   101     0  0.0000000000e+00  0.0000000000e+00 -5.7204928405e+00  5.7204928405e+00  0.0000000000e+00 0. 9.
       21     1     1     2   101   103 -5.7841466922e+00 -6.2243973831e-01 -3.3587309541e+00  6.7175038375e+00  0.0000000000e+00 0. 9.
        2     1     1     2   102     0  5.7841466922e+00  6.2243973831e-01  1.1756775338e+01  1.3121526227e+01  3.3000000000e-01 0. 9.
#pdf   21    2  1.411854e-01  5.720493e-02  5.819503e+00  8.020335e-01  5.985006e-01
</event>
<event>
     4  9999  1.000000e+00  6.117356e+00  7.586469e-03  2.274996e-01
       21    -1     0     0   102   103  0.0000000000e+00  0.0000000000e+00  2.2594025411e+00  2.2594025411e+00  0.0000000000e+00 0. 9.
        2    -1     0     0   101     0  0.0000000000e+00  0.0000000000e+00 -3.6927710702e+01  3.6927710702e+01  0.0000000000e+00 0. 9.
       21     1     1     2   101   103 -4.6460180787e+00 -3.9764480682e+00 -2.7827330224e+00  6.7187220735e+00  0.0000000000e+00 0. 9.
        2     1     1     2   102     0  4.6460180787e+00  3.9764480682e+00 -3.1885575138e+01  3.2468391169e+01  3.3000000000e-01 0. 9.
#pdf   21    2  2.259403e-02  3.692771e-01  6.117356e+00  3.829519e+00  3.722125e-01
</event>
<event>
     4  9999  1.000000e+00  6.715550e+00  7.593994e-03  2.217565e-01
       21    -1     0     0   103   102  0.0000000000e+00  0.0000000000e+00  1.5521420356e+01  1.5521420356e+01  0.0000000000e+00 0. 9.
       -2    -1     0     0     0   101  0.0000000000e+00  0.0000000000e+00 -3.2213160172e+00  3.2213160172e+00  0.0000000000e+00 0. 9.
       21     1     1     2   103   101 -6.6046987079e+00 -1.1947650924e+00  3.2143440906e+00  7.4418758779e+00  0.0000000000e+00 0. 9.
       -2     1     1     2     0   102  6.6046987079e+00  1.1947650924e+00  9.0857602480e+00  1.1300860495e+01  3.3000000000e-01 0. 9.
#pdf   21   -2  1.552142e-01  3.221316e-02  6.715550e+00  7.040531e-01  2.046871e-01
</event>
<event>
     4  9999  1.000000e+00  7.588183e+00  7.603870e-03  2.146606e-01
       21    -1     0     0   103   102  0.0000000000e+00  0.0000000000e+00  3.8780446683e+00  3.8780446683e+00  0.0000000000e+00 0. 9.
       -4    -1     0     0     0   101  0.0000000000e+00  0.0000000000e+00 -2.0200163850e+01  2.0200163850e+01  0.0000000000e+00 0. 9.
       21     1     1     2   103   101 -5.5230297079e+00  5.1237407369e+00 -1.9498559823e+00  7.7819351478e+00  0.0000000000e+00 0. 9.
       -4     1     1     2     0   102  5.5230297079e+00 -5.1237407369e+00 -1.4372263199e+01  1.6296273370e+01  1.5000000000e+00 0. 9.
#pdf   21   -4  3.878045e-02  2.020016e-01  7.588183e+00  2.664543e+00  1.056778e-02
</event>
<event>
     4  9999  1.000000e+00  5.638611e+00  7.579908e-03  2.327651e-01
        1    -1     0     0   101     0  0.0000000000e+00  0.0000000000e+00  3.8002971871e+01  3.8002971871e+01  0.0000000000e+00 0. 9.
       21    -1     0     0   102   103  0.0000000000e+00  0.0000000000e+00 -2.4863761822e+00  2.4863761822e+00  0.0000000000e+00 0. 9.
        1     1     1     2   102     0  3.5323233077e-01 -5.6259077739e+00  3.4249308550e+01  3.4711664430e+01  3.3000000000e-01 0. 9.
       21     1     1     2   101   103 -3.5323233077e-01  5.6259077739e+00  1.2672871393e+00  5.7776836235e+00  0.0000000000e+00 0. 9.
#pdf    1   21  3.800297e-01  2.486376e-02  5.638611e+00  1.360315e-01  3.570683e+00
</event>
<event>
     4  9999  1.000000e+00  6.250744e+00  7.588207e-03  2.261455e-01
       21    -1     0     0   102   101  0.0000000000e+00  0.0000000000e+00  8.4792012962e-01  8.4792012962e-01  0.0000000000e+00 0. 9.
       21    -1     0     0   104   103  0.0000000000e+00  0.0000000000e+00 -4.6745726954e+01  4.6745726954e+01  0.0000000000e+00 0. 9.
       21     1     1     2   104   101  1.9179736122e+00 -5.9492170328e+00 -2.0108159779e+01  2.1057300296e+01  0.0000000000e+00 0. 9.
       21     1     1     2   102   103 -1.9179736122e+00  5.9492170328e+00 -2.5789647046e+01  2.6536346788e+01  0.0000000000e+00 0. 9.
#pdf   21   21  8.479201e-03  4.674573e-01  6.250744e+00  6.751327e+00  8.340413e-02
</event>
<event>
     4  9999  1.000000e+00  6.099512e+00  7.586233e-03  2.276842e-01
       21    -1     0     0   101   102  0.0000000000e+00  0.0000000000e+00  3.8045258190e+00  3.8045258190e+00  0.0000000000e+00 0. 9.
       21    -1     0     0   102   103  0.0000000000e+00  0.0000000000e+00 -1.3179521537e+01  1.3179521537e+01  0.0000000000e+00 0. 9.
       21     1     1     2   101   104  5.4422932721e+00  2.7541775004e+00 -3.7388673057e-01  6.1109607305e+00  0.0000000000e+00 0. 9.
       21     1     1     2   104   103 -5.4422932721e+00 -2.7541775004e+00 -9.0011089874e+00  1.0873086625e+01  0.0000000000e+00 0. 9.
#pdf   21   21  3.804526e-02  1.317952e-01  6.099512e+00  2.682385e+00  8.610528e-01
</event>
<event>
     4  9999  1.000000e+00  5.453139e+00  7.577219e-03  2.349974e-01
        2    -1     0     0   101     0  0.0000000000e+00  0.0000000000e+00  1.6762387869e+01  1.6762387869e+01  0.0000000000e+00 0. 9.
       21    -1     0     0   102   101  0.0000000000e+00  0.0000000000e+00 -7.5828829788e+00  7.5828829788e+00  0.0000000000e+00 0. 9.
        2     1     1     2   103     0  2.1358601937e+00  5.0161823874e+00  1.5242466094e+01  1.6191530414e+01  3.3000000000e-01 0. 9.
       21     1     1     2   102   103 -2.1358601937e+00 -5.0161823874e+00 -6.0629612037e+00  8.1537404342e+00  0.0000000000e+00 0. 9.
#pdf    2   21  1.676239e-01  7.582883e-02  5.453139e+00  6.163024e-01  1.525312e+00
</event>
<event>
     4  9999  1.000000e+00  5.614681e+00  7.579566e-03  2.330466e-01
       21    -1     0     0   101   102  0.0000000000e+00  0.0000000000e+00  4.0206224482e+01  4.0206224482e+01  0.0000000000e+00 0. 9.
       -3    -1     0     0     0   101  0.0000000000e+00  0.0000000000e+00 -1.2451617788e+00  1.2451617788e+00  0.0000000000e+00 0. 9.
       21     1     1     2   103   102  1.8619924294e+00 -5.2895142763e+00  3.2052588061e+01  3.2539428060e+01  0.0000000000e+00 0. 9.
       -3     1     1     2     0   103 -1.8619924294e+00  5.2895142763e+00  6.9084746425e+00  8.9119582008e+00  5.0000000000e-01 0. 9.
#pdf   21   -3  4.020622e-01  1.245162e-02  5.614681e+00  1.623689e-01  1.583362e-01
</event>
<event>
     4  9999  1.000000e+00  6.207459e+00  7.587647e-03  2.265799e-01
        3    -1     0     0   101     0  0.0000000000e+00  0.0000000000e+00  6.0316256654e+00  6.0316256654e+00  0.0000000000e+00 0. 9.
       21    -1     0     0   102   103  0.0000000000e+00  0.0000000000e+00 -6.4448947550e+00  6.4448947550e+00  0.0000000000e+00 0. 9.
        3     1     1     2   102     0 -5.1488845054e+00  3.4493082477e+00  3.7606584141e-01  6.2289778098e+00  5.0000000000e-01 0. 9.
       21     1     1     2   101   103  5.1488845054e+00 -3.4493082477e+00 -7.8933493096e-01  6.2475426106e+00  0.0000000000e+00 0. 9.
#pdf    3   21  6.031626e-02  6.444895e-02  6.207459e+00  5.826623e-02  1.756298e+00
</event>
<event>
     4  9999  1.000000e+00  6.048724e+00  7.585560e-03  2.282144e-01
       21    -1     0     0   101   102  0.0000000000e+00  0.0000000000e+00  2.3845389906e+01  2.3845389906e+01  0.0000000000e+00 0. 9.
       21    -1     0     0   102   103  0.0000000000e+00  0.0000000000e+00 -3.0776477522e+00  3.0776477522e+00  0.0000000000e+00 0. 9.
       21     1     1     2   101   104 -3.2306725081e+00  5.1136889868e+00  1.9916444130e+01  2.0814701696e+01  0.0000000000e+00 0. 9.
       21     1     1     2   104   103  3.2306725081e+00 -5.1136889868e+00  8.5129802431e-01  6.1083359628e+00  0.0000000000e+00 0. 9.
#pdf   21   21  2.384539e-01  3.077648e-02  6.048724e+00  4.222605e-01  3.117780e+00
</event>
<event>
     4  9999  1.000000e+00  5.024813e+00  7.570649e-03  2.406420e-01
        2    -1     0     0   101     0  0.0000000000e+00  0.0000000000e+00  2.3172260181e+00  2.3172260181e+00  0.0000000000e+00 0. 9.
       21    -1     0     0   102   101  0.0000000000e+00  0.0000000000e+00 -2.1777741880e+01  2.1777741880e+01  0.0000000000e+00 0. 9.
        2     1     1     2   103     0 -8.5795270030e-01  4.9482756433e+00 -1.2240764306e+00  5.1796503537e+00  3.3000000000e-01 0. 9.
       21     1     1     2   102   103  8.5795270030e-01 -4.9482756433e+00 -1.8236439431e+01  1.8915317544e+01  0.0000000000e+00 0. 9.
#pdf    2   21  2.317226e-02  2.177774e-01  5.024813e+00  5.487960e-01  4.961978e-01
</event>
<event>
     4  9999  1.000000e+00  6.410118e+00  7.590237e-03  2.245852e-01
       21    -1     0     0   102   101  0.0000000000e+00  0.0000000000e+00  8.4117130887e+00  8.4117130887e+00  0.0000000000e+00 0. 9.
        1    -1     0     0   101     0  0.0000000000e+00  0.0000000000e+00 -9.1337656231e+00  9.1337656231e+00  0.0000000000e+00 0. 9.
       21     1     1     2   102   103  2.7665131283e+00 -5.7798709301e+00  5.6204278363e+00  8.5234800358e+00  0.0000000000e+00 0. 9.
        1     1     1     2   103     0 -2.7665131283e+00  5.7798709301e+00 -6.3424803707e+00  9.0219986760e+00  3.3000000000e-01 0. 9.
#pdf   21    1  8.411713e-02  9.133766e-02  6.410118e+00  1.371170e+00  4.013790e-01
</event>
<event>
     4  9999  1.000000e+00  8.764597e+00  7.615554e-03  2.068517e-01
        2    -1     0     0   101     0  0.0000000000e+00  0.0000000000e+00  1.3670595114e+01  1.3670595114e+01  0.0000000000e+00 0. 9.
       21    -1     0     0   102   103  0.0000000000e+00  0.0000000000e+00 -9.0917058339e+00  9.0917058339e+00  0.0000000000e+00 0. 9.
        2     1     1     2   102     0  1.5034725790e+00  8.6327329818e+00  9.3220977685e+00  1.2798238759e+01  3.3000000000e-01 0. 9.
       21     1     1     2   101   103 -1.5034725790e+00 -8.6327329818e+00 -4.7432084887e+00  9.9640621885e+00  0.0000000000e+00 0. 9.
#pdf    2   21  1.367060e-01  9.091706e-02  8.764597e+00  6.153001e-01  1.238776e+00
</event>
<event>
     4  9999  1.000000e+00  5.231489e+00  7.573885e-03  2.378272e-01
       21    -1     0     0   101   102  0.0000000000e+00  0.0000000000e+00  2.4373424407e+01  2.4373424407e+01  0.0000000000e+00 0. 9.
       21    -1     0     0   103   104  0.0000000000e+00  0.0000000000e+00 -1.1361512144e+00  1.1361512144e+00  0.0000000000e+00 0. 9.
       21     1     1     2   101   104  5.7514017106e-01  5.1997783434e+00  1.0240231808e+01  1.1499166427e+01  0.0000000000e+00 0. 9.
       21     1     1     2   103   102 -5.7514017106e-01 -5.1997783434e+00  1.2997041385e+01  1.4010409194e+01  0.0000000000e+00 0. 9.
#pdf   21   21  2.437342e-01  1.136151e-02  5.231489e+00  4.274789e-01  5.558326e+00
</event>
<event>
     4  9999  1.000000e+00  5.350823e+00  7.575697e-03  2.362807e-01
       21    -1     0     0   101   102  0.0000000000e+00  0.0000000000e+00  1.9538021168e+01  1.9538021168e+01  0.0000000000e+00 0. 9.
       21    -1     0     0   103   101  0.0000000000e+00  0.0000000000e+00 -7.5707083106e+00  7.5707083106e+00  0.0000000000e+00 0. 9.
        4     1     1     2   103     0 -5.1362396813e+00 -1.8669015426e-02 -6.1884063239e+00  8.1809338969e+00  1.5000000000e+00 0. 9.
       -4     1     1     2     0   102  5.1362396813e+00  1.8669015426e-02  1.8155719182e+01  1.8927795582e+01  1.5000000000e+00 0. 9.
#pdf   21   21  1.953802e-01  7.570708e-02  5.350823e+00  5.580769e-01  1.528534e+00
</event>
<event>
     4  9999  1.000000e+00  5.401652e+00  7.576456e-03  2.356384e-01
        2    -1     0     0   101     0  0.0000000000e+00  0.0000000000e+00  1.0364649739e+01  1.0364649739e+01  0.0000000000e+00 0. 9.
       21    -1     0     0   102   101  0.0000000000e+00  0.0000000000e+00 -7.4704645628e+00  7.4704645628e+00  0.0000000000e+00 0. 9.
        2     1     1     2   103     0  4.7007753538e+00 -2.6570738370e+00  8.4847184476e+00  1.0062637698e+01  3.3000000000e-01 0. 9.
       21     1     1     2   102   103 -4.7007753538e+00  2.6570738370e+00 -5.5905332713e+00  7.7724766040e+00  0.0000000000e+00 0. 9.
#pdf    2   21  1.036465e-01  7.470465e-02  5.401652e+00  6.283443e-01  1.546731e+00
</event>
<event>
     4  9999  1.000000e+00  6.232307e+00  7.587969e-03  2.263300e-01
        1    -1     0     0   101     0  0.0000000000e+00  0.0000000000e+00  1.0433991022e+01  1.0433991022e+01  0.0000000000e+00 0. 9.
       -3    -1     0     0     0   101  0.0000000000e+00  0.0000000000e+00 -3.9880012328e+00  3.9880012328e+00  0.0000000000e+00 0. 9.
        1     1     1     2   102     0 -5.4033199326e+00  3.0786858355e+00  1.3640631425e+00  6.3752443894e+00  3.3000000000e-01 0. 9.
       -3     1     1     2     0   102  5.4033199326e+00 -3.0786858355e+00  5.0819266466e+00  8.0467478654e+00  5.0000000000e-01 0. 9.
#pdf    1   -3  1.043399e-01  3.988001e-02  6.232307e+00  3.931224e-01  8.120871e-02
</event>
<event>
     4  9999  1.000000e+00  7.061076e+00  7.598047e-03  2.187863e-01
       21    -1     0     0   102   103  0.0000000000e+00  0.0000000000e+00  2.2870031752e+01  2.2870031752e+01  0.0000000000e+00 0. 9.
        1    -1     0     0   101     0  0.0000000000e+00  0.0000000000e+00 -7.4206957782e+00  7.4206957782e+00  0.0000000000e+00 0. 9.
       21     1     1     2   101   103 -4.4372182945e+00  5.4912565328e+00  2.0449030761e+01  2.1633438551e+01  0.0000000000e+00 0. 9.
        1     1     1     2   102     0  4.4372182945e+00 -5.4912565328e+00 -4.9996947869e+00  8.6572889789e+00  3.3000000000e-01 0. 9.
#pdf   21    1  2.287003e-01  7.420696e-02  7.061076e+00  4.282397e-01  4.112288e-01
</event>
<event>
     4  9999  1.000000e+00  7.211281e+00  7.599748e-03  2.175638e-01
       21    -1     0     0   101   102  0.0000000000e+00  0.0000000000e+00  2.5662622909e+00  2.5662622909e+00  0.0000000000e+00 0. 9.
       21    -1     0     0   103   104  0.0000000000e+00  0.0000000000e+00 -2.3542306467e+01  2.3542306467e+01  0.0000000000e+00 0. 9.
       21     1     1     2   101   104 -6.3453213249e+00 -3.4262911146e+00 -5.6165792279e+00  9.1404888131e+00  0.0000000000e+00 0. 9.
       21     1     1     2   103   102  6.3453213249e+00  3.4262911146e+00 -1.5359464948e+01  1.6968079945e+01  0.0000000000e+00 0. 9.
#pdf   21   21  2.566262e-02  2.354231e-01  7.211281e+00  3.577705e+00  4.094190e-01
</event>
<event>
     4  9999  1.000000e+00  5.009485e+00  7.570404e-03  2.408581e-01
       21    -1     0     0   102   101  0.0000000000e+00  0.0000000000e+00  5.0468057763e+00  5.0468057763e+00  0.0000000000e+00 0. 9.
       21    -1     0     0   104   103  0.0000000000e+00  0.0000000000e+00 -1.0498394977e+01  1.0498394977e+01  0.0000000000e+00 0. 9.
       21     1     1     2   104   101 -1.5914718746e+00 -4.7499641217e+00 -8.3648782017e+00  9.7501861118e+00  0.0000000000e+00 0. 9.
       21     1     1     2   102   103  1.5914718746e+00  4.7499641217e+00  2.9132890013e+00  5.7950146411e+00  0.0000000000e+00 0. 9.
#pdf   21   21  5.046806e-02  1.049839e-01  5.009485e+00  2.150589e+00  1.120604e+00
</event>
<event>
     4  9999  1.000000e+00  6.660885e+00  7.593334e-03  2.222480e-01
       21    -1     0     0   102   101  0.0000000000e+00  0.0000000000e+00  1.0765703128e+00  1.0765703128e+00  0.0000000000e+00 0. 9.
       21    -1     0     0   103   102  0.0000000000e+00  0.0000000000e+00 -5.2578831341e+01  5.2578831341e+01  0.0000000000e+00 0. 9.
       21     1     1     2   104   101  2.6770598910e+00 -6.0992410096e+00 -1.3277246719e+01  1.4854382215e+01  0.0000000000e+00 0. 9.
       21     1     1     2   103   104 -2.6770598910e+00  6.0992410096e+00 -3.8225014310e+01  3.8801019440e+01  0.0000000000e+00 0. 9.
#pdf   21   21  1.076570e-02  5.257883e-01  6.660885e+00  6.015550e+00  4.018584e-02
</event>
<event>
     4  9999  1.000000e+00  6.138961e+00  7.586753e-03  2.272772e-01
       21    -1     0     0   102   101  0.0000000000e+00  0.0000000000e+00  1.1390508810e+01  1.1390508810e+01  0.0000000000e+00 0. 9.
       21    -1     0     0   103   102  0.0000000000e+00  0.0000000000e+00 -5.2360246550e+00  5.2360246550e+00  0.0000000000e+00 0. 9.
       21     1     1     2   104   101 -6.0214005836e+00  1.1956489858e+00  8.1210386314e+00  1.0180280445e+01  0.0000000000e+00 0. 9.
       21     1     1     2   103   104  6.0214005836e+00 -1.1956489858e+00 -1.9665544767e+00  6.4462530198e+00  0.0000000000e+00 0. 9.
#pdf   21   21  1.139051e-01  5.236025e-02  6.138961e+00  1.009668e+00  2.094640e+00
</event>
<event>
     4  9999  1.000000e+00  5.498025e+00  7.577878e-03  2.344464e-01
       21    -1     0     0   102   103  0.0000000000e+00  0.0000000000e+00  1.1464330329e+00  1.1464330329e+00  0.0000000000e+00 0. 9.
        1    -1     0     0   101     0  0.0000000000e+00  0.0000000000e+00 -2.8702309848e+01  2.8702309848e+01  0.0000000000e+00 0. 9.
       21     1     1     2   101   103 -1.5316548097e+00 -5.2756336517e+00 -9.5132197705e+00  1.0985427952e+01  0.0000000000e+00 0. 9.
        1     1     1     2   102     0  1.5316548097e+00  5.2756336517e+00 -1.8042657044e+01  1.8863314929e+01  3.3000000000e-01 0. 9.
#pdf   21    1  1.146433e-02  2.870231e-01  5.498025e+00  5.594443e+00  2.209695e-01
</event>
<event>
     4  9999  1.000000e+00  9.183695e+00  7.619349e-03  2.044415e-01
        2    -1     0     0   101     0  0.0000000000e+00  0.0000000000e+00  2.0927111601e+01  2.0927111601e+01  0.0000000000e+00 0. 9.
       21    -1     0     0   102   101  0.0000000000e+00  0.0000000000e+00 -5.0265900370e+00  5.0265900370e+00  0.0000000000e+00 0. 9.
        2     1     1     2   103     0  7.8997967266e+00  4.6786557493e+00  1.3728446180e+01  1.6518951010e+01  3.3000000000e-01 0. 9.
       21     1     1     2   102   103 -7.8997967266e+00 -4.6786557493e+00  2.1720753839e+00  9.4347506282e+00  0.0000000000e+00 0. 9.
#pdf    2   21  2.092711e-01  5.026590e-02  9.183695e+00  5.562727e-01  2.161288e+00
</event>
<event>
     4  9999  1.000000e+00  5.038810e+00  7.570872e-03  2.404456e-01
        2    -1     0     0   101     0  0.0000000000e+00  0.0000000000e+00  2.2842658091e+01  2.2842658091e+01  0.0000000000e+00 0. 9.
       21    -1     0     0   102   103  0.0000000000e+00  0.0000000000e+00 -2.9182031081e+00  2.9182031081e+00  0.0000000000e+00 0. 9.
        2     1     1     2   102     0 -4.0673785263e+00  2.9707420242e+00  2.0096976940e+01  2.0721154851e+01  3.3000000000e-01 0. 9.
       21     1     1     2   101   103  4.0673785263e+00 -2.9707420242e+00 -1.7252195658e-01  5.0397063482e+00  0.0000000000e+00 0. 9.
#pdf    2   21  2.284266e-01  2.918203e-02  5.038810e+00  5.710415e-01  3.178745e+00
</event>
<event>
     4  9999  1.000000e+00  5.354829e+00  7.575757e-03  2.362298e-01
       21    -1     0     0   101   102  0.0000000000e+00  0.0000000000e+00  5.6900784996e+00  5.6900784996e+00  0.0000000000e+00 0. 9.
       21    -1     0     0   103   104  0.0000000000e+00  0.0000000000e+00 -1.0338200343e+01  1.0338200343e+01  0.0000000000e+00 0. 9.
       21     1     1     2   101   104  2.5949907265e+00 -4.6840384766e+00  3.4134826378e+00  6.3502800757e+00  0.0000000000e+00 0. 9.
       21     1     1     2   103   102 -2.5949907265e+00  4.6840384766e+00 -8.0616044812e+00  9.6779987669e+00  0.0000000000e+00 0. 9.
#pdf   21   21  5.690078e-02  1.033820e-01  5.354829e+00  1.956767e+00  1.132332e+00
</event>
<event>
     4  9999  1.000000e+00  8.449298e+00  7.612581e-03  2.087824e-01
        2    -1     0     0   101     0  0.0000000000e+00  0.0000000000e+00  7.0888333439e+01  7.0888333439e+01  0.0000000000e+00 0. 9.
       21    -1     0     0   102   103  0.0000000000e+00  0.0000000000e+00 -4.1342545684e+00  4.1342545684e+00  0.0000000000e+00 0. 9.
        2     1     1     2   102     0  5.4946819110e+00 -6.4176194011e+00  6.6001251563e+01  6.6540600208e+01  3.3000000000e-01 0. 9.
       21     1     1     2   101   103 -5.4946819110e+00  6.4176194011e+00  7.5282730752e-01  8.4819877998e+00  0.0000000000e+00 0. 9.
#pdf    2   21  7.088833e-01  4.134255e-02  8.449298e+00  3.322844e-02  2.539590e+00
</event>
<event>
     4  9999  1.000000e+00  6.670524e+00  7.593451e-03  2.221609e-01
       21    -1     0     0   102   103  0.0000000000e+00  0.0000000000e+00  2.3455876154e+00  2.3455876154e+00  0.0000000000e+00 0. 9.
        1    -1     0     0   101     0  0.0000000000e+00  0.0000000000e+00 -3.9901447151e+01  3.9901447151e+01  0.0000000000e+00 0. 9.
       21     1     1     2   101   103  4.3870092440e+00  5.0223661342e+00 -3.4776337813e+00  7.5209007712e+00  0.0000000000e+00 0. 9.
        1     1     1     2   102     0 -4.3870092440e+00 -5.0223661342e+00 -3.4078225754e+01  3.4726133995e+01  3.3000000000e-01 0. 9.
#pdf   21    1  2.345588e-02  3.990145e-01  6.670524e+00  3.773168e+00  1.166732e-01
</event>
<event>
     4  9999  1.000000e+00  6.822362e+00  7.595268e-03  2.208137e-01
       21    -1     0     0   102   101  0.0000000000e+00  0.0000000000e+00  1.8410574345e+00  1.8410574345e+00  0.0000000000e+00 0. 9.
        2    -1     0     0   101     0  0.0000000000e+00  0.0000000000e+00 -4.8292597070e+01  4.8292597070e+01  0.0000000000e+00 0. 9.
       21     1     1     2   102   103 -6.2502870222e+00  2.7294742588e+00 -5.9206882155e+00  9.0316480520e+00  0.0000000000e+00 0. 9.
        2     1     1     2   103     0  6.2502870222e+00 -2.7294742588e+00 -4.0530851420e+01  4.1102006453e+01  3.3000000000e-01 0. 9.
#pdf   21    2  1.841057e-02  4.829260e-01  6.822362e+00  4.411541e+00  2.140971e-01
</event>
<event>
     4  9999  1.000000e+00  5.125711e+00  7.572245e-03  2.392454e-01
       21    -1     0     0   101   102  0.0000000000e+00  0.0000000000e+00  3.3233816203e+01  3.3233816203e+01  0.0000000000e+00 0. 9.
       21    -1     0     0   103   101  0.0000000000e+00  0.0000000000e+00 -2.9374164246e+00  2.9374164246e+00  0.0000000000e+00 0. 9.
       21     1     1     2   103   104  2.3190317256e+00 -4.5711056869e+00 -3.1335986354e-01  5.1352808832e+00  0.0000000000e+00 0. 9.
       21     1     1     2   104   102 -2.3190317256e+00  4.5711056869e+00  3.0609759642e+01  3.1035951744e+01  0.0000000000e+00 0. 9.
#pdf   21   21  3.323382e-01  2.937416e-02  5.125711e+00  2.709145e-01  3.171040e+00
</event>
<event>
     4  9999  1.000000e+00  6.333264e+00  7.589265e-03  2.253300e-01
        1    -1     0     0   101     0  0.0000000000e+00  0.0000000000e+00  1.1576396205e+01  1.1576396205e+01  0.0000000000e+00 0. 9.
        1    -1     0     0   102     0  0.0000000000e+00  0.0000000000e+00 -8.7935980642e+00  8.7935980642e+00  0.0000000000e+00 0. 9.
        1     1     1     2   102     0 -1.9360648758e+00  6.0265232499e+00  9.3156572632e+00  1.1267550751e+01  3.3000000000e-01 0. 9.
        1     1     1     2   101     0  1.9360648758e+00 -6.0265232499e+00 -6.5328591225e+00  9.1024435180e+00  3.3000000000e-01 0. 9.
#pdf    1    1  1.157640e-01  8.793598e-02  6.333264e+00  3.845448e-01  4.035791e-01
</event>
<event>
     4  9999  1.000000e+00  9.610672e+00  7.623082e-03  2.021499e-01
       21    -1     0     0   102   101  0.0000000000e+00  0.0000000000e+00  7.9947585503e+00  7.9947585503e+00  0.0000000000e+00 0. 9.
       21    -1     0     0   103   102  0.0000000000e+00  0.0000000000e+00 -1.2171723049e+01  1.2171723049e+01  0.0000000000e+00 0. 9.
       21     1     1     2   104   101  7.5090834996e+00  5.9982225103e+00 -4.3615042598e+00  1.0554038454e+01  0.0000000000e+00 0. 9.
       21     1     1     2   103   104 -7.5090834996e+00 -5.9982225103e+00  1.8453976144e-01  9.6124431447e+00  0.0000000000e+00 0. 9.
#pdf   21   21  7.994759e-02  1.217172e-01  9.610672e+00  1.402706e+00  8.902366e-01
</event>
<event>
     4  9999  1.000000e+00  7.638394e+00  7.604404e-03  2.142904e-01
        1    -1     0     0   101     0  0.0000000000e+00  0.0000000000e+00  2.0396936048e+01  2.0396936048e+01  0.0000000000e+00 0. 9.
       21    -1     0     0   102   101  0.0000000000e+00  0.0000000000e+00 -2.8766531821e+01  2.8766531821e+01  0.0000000000e+00 0. 9.
        1     1     1     2   103     0 -7.6138291124e+00 -6.0765746298e-01  1.9141488202e+01  2.0611771198e+01  3.3000000000e-01 0. 9.
       21     1     1     2   102   103  7.6138291124e+00  6.0765746298e-01 -2.7511083975e+01  2.8551696671e+01  0.0000000000e+00 0. 9.
#pdf    1   21  2.039694e-01  2.876653e-01  7.638394e+00  2.951758e-01  2.970010e-01
</event>
<event>
     4  9999  1.000000e+00  5.165515e+00  7.572866e-03  2.387063e-01
       21    -1     0     0   101   102  0.0000000000e+00  0.0000000000e+00  5.5605238214e+00  5.5605238214e+00  0.0000000000e+00 0. 9.
       21    -1     0     0   103   104  0.0000000000e+00  0.0000000000e+00 -7.8286480215e+00  7.8286480215e+00  0.0000000000e+00 0. 9.
       21     1     1     2   101   104  1.7524721082e+00 -4.8591547631e+00  3.0308658265e+00  5.9890476004e+00  0.0000000000e+00 0. 9.
       21     1     1     2   103   102 -1.7524721082e+00  4.8591547631e+00 -5.2989900267e+00  7.4001242425e+00  0.0000000000e+00 0. 9.
#pdf   21   21  5.560524e-02  7.828648e-02  5.165515e+00  1.992799e+00  1.484201e+00
</event>
<event>
     4  9999  1.000000e+00  5.299733e+00  7.574926e-03  2.369361e-01
        2    -1     0     0   101     0  0.0000000000e+00  0.0000000000e+00  1.1305706460e+01  1.1305706460e+01  0.0000000000e+00 0. 9.
       21    -1     0     0   102   101  0.0000000000e+00  0.0000000000e+00 -5.8533280146e+00  5.8533280146e+00  0.0000000000e+00 0. 9.
        2     1     1     2   103     0 -4.0441103407e+00 -3.4218764119e+00  9.2335902258e+00  1.0650453281e+01  3.3000000000e-01 0. 9.
       21     1     1     2   102   103  4.0441103407e+00  3.4218764119e+00 -3.7812117805e+00  6.5085811937e+00  0.0000000000e+00 0. 9.
#pdf    2   21  1.130571e-01  5.853328e-02  5.299733e+00  6.303817e-01  1.911411e+00
</event>
<event>
     4  9999  1.000000e+00  5.629767e+00  7.579782e-03  2.328689e-01
        2    -1     0     0   101     0  0.0000000000e+00  0.0000000000e+00  4.3490148645e+01  4.3490148645e+01  0.0000000000e+00 0. 9.
       21    -1     0     0   102   101  0.0000000000e+00  0.0000000000e+00 -1.2734884722e+00  1.2734884722e+00  0.0000000000e+00 0. 9.
        2     1     1     2   103     0 -5.6269028159e+00  3.2950994761e-02  3.5749596942e+01  3.6191237926e+01  3.3000000000e-01 0. 9.
       21     1     1     2   102   103  5.6269028159e+00 -3.2950994761e-02  6.4670632307e+00  8.5723991915e+00  0.0000000000e+00 0. 9.
#pdf    2   21  4.349015e-01  1.273488e-02  5.629767e+00  2.871453e-01  5.307778e+00
</event>
<event>
     4  9999  1.000000e+00  1.017801e+01  7.627918e-03  1.993299e-01
        2    -1     0     0   101     0  0.0000000000e+00  0.0000000000e+00  4.3453988105e+01  4.3453988105e+01  0.0000000000e+00 0. 9.
       21    -1     0     0   102   103  0.0000000000e+00  0.0000000000e+00 -3.6907142240e+00  3.6907142240e+00  0.0000000000e+00 0. 9.
        2     1     1     2   102     0 -7.1881371020e+00  7.2032918797e+00  3.3909063258e+01  3.5404663533e+01  3.3000000000e-01 0. 9.
       21     1     1     2   101   103  7.1881371020e+00 -7.2032918797e+00  5.8542106235e+00  1.1740038796e+01  0.0000000000e+00 0. 9.
#pdf    2   21  4.345399e-01  3.690714e-02  1.017801e+01  2.507272e-01  2.785283e+00
</event>
<event>
     4  9999  1.000000e+00  6.025411e+00  7.585249e-03  2.284600e-01
       21    -1     0     0   102   103  0.0000000000e+00  0.0000000000e+00  1.1141559144e+00  1.1141559144e+00  0.0000000000e+00 0. 9.
        2    -1     0     0   101     0  0.0000000000e+00  0.0000000000e+00 -3.2920491437e+01  3.2920491437e+01  0.0000000000e+00 0. 9.
       21     1     1     2   101   103  5.5473700360e+00  2.3405945077e+00 -1.4176579271e+01  1.5402178313e+01  0.0000000000e+00 0. 9.
        2     1     1     2   102     0 -5.5473700360e+00 -2.3405945077e+00 -1.7629756252e+01  1.8632469038e+01  3.3000000000e-01 0. 9.
#pdf   21    2  1.114156e-02  3.292049e-01  6.025411e+00  5.787346e+00  4.302634e-01
</event>
<event>
     4  9999  1.000000e+00  2.007238e+01  7.685647e-03  1.710730e-01
       21    -1     0     0   102   101  0.0000000000e+00  0.0000000000e+00  5.0569784502e+01  5.0569784502e+01  0.0000000000e+00 0. 9.
       21    -1     0     0   104   103  0.0000000000e+00  0.0000000000e+00 -8.6060503764e+00  8.6060503764e+00  0.0000000000e+00 0. 9.
       21     1     1     2   104   101  5.8233721241e+00 -1.9209081216e+01  1.2920547472e+01  2.3871342883e+01  0.0000000000e+00 0. 9.
       21     1     1     2   102   103 -5.8233721241e+00  1.9209081216e+01  2.9043186653e+01  3.5304491995e+01  0.0000000000e+00 0. 9.
#pdf   21   21  5.056978e-01  8.606050e-02  2.007238e+01  2.450821e-02  1.223170e+00
</event>
<event>
     4  9999  1.000000e+00  5.015053e+00  7.570493e-03  2.407795e-01
       21    -1     0     0   103   102  0.0000000000e+00  0.0000000000e+00  5.9790550930e+00  5.9790550930e+00  0.0000000000e+00 0. 9.
       -1    -1     0     0     0   101  0.0000000000e+00  0.0000000000e+00 -1.7244848975e+01  1.7244848975e+01  0.0000000000e+00 0. 9.
       21     1     1     2   103   101 -9.0264940265e-01 -4.9318053877e+00  4.4628047651e+00  6.7122355961e+00  0.0000000000e+00 0. 9.
       -1     1     1     2     0   102  9.0264940265e-01  4.9318053877e+00 -1.5728598647e+01  1.6511668472e+01  3.3000000000e-01 0. 9.
#pdf   21   -1  5.979055e-02  1.724485e-01  5.015053e+00  1.877337e+00  5.647096e-02
</event>
<event>
     4  9999  1.000000e+00  7.017303e+00  7.597544e-03  2.191501e-01
        2    -1     0     0   101     0  0.0000000000e+00  0.0000000000e+00  2.0015743803e+01  2.0015743803e+01  0.0000000000e+00 0. 9.
       21    -1     0     0   102   101  0.0000000000e+00  0.0000000000e+00 -9.9053827421e+00  9.9053827421e+00  0.0000000000e+00 0. 9.
        2     1     1     2   103     0 -6.4079397905e+00 -2.8578532920e+00  1.8024401249e+01  1.9344688113e+01  3.3000000000e-01 0. 9.
       21     1     1     2   102   103  6.4079397905e+00  2.8578532920e+00 -7.9140401885e+00  1.0576438432e+01  0.0000000000e+00 0. 9.
#pdf    2   21  2.001574e-01  9.905383e-02  7.017303e+00  5.795045e-01  1.155320e+00
</event>
<event>
     4  9999  1.000000e+00  5.230816e+00  7.573875e-03  2.378361e-01
       -1    -1     0     0     0   101  0.0000000000e+00  0.0000000000e+00  1.3235207369e+01  1.3235207369e+01  0.0000000000e+00 0. 9.
       21    -1     0     0   103   102  0.0000000000e+00  0.0000000000e+00 -4.3577726000e+00  4.3577726000e+00  0.0000000000e+00 0. 9.
       -1     1     1     2     0   102 -5.3373570299e-02 -5.2280740663e+00  1.0815113630e+01  1.2017120704e+01  3.3000000000e-01 0. 9.
       21     1     1     2   103   101  5.3373570299e-02  5.2280740663e+00 -1.9376788607e+00  5.5758592654e+00  0.0000000000e+00 0. 9.
#pdf   -1   21  1.323521e-01  4.357773e-02  5.230816e+00  8.031279e-02  2.409542e+00
</event>
<event>
     4  9999  1.000000e+00  5.723416e+00  7.581109e-03  2.317824e-01
       -1    -1     0     0     0   101  0.0000000000e+00  0.0000000000e+00  4.7704172048e+00  4.7704172048e+00  0.0000000000e+00 0. 9.
       21    -1     0     0   103   102  0.0000000000e+00  0.0000000000e+00 -1.8042477063e+01  1.8042477063e+01  0.0000000000e+00 0. 9.
       -1     1     1     2     0   102  1.0964358309e+00 -5.6155674782e+00  2.3361979120e+00  6.1889813634e+00  3.3000000000e-01 0. 9.
       21     1     1     2   103   101 -1.0964358309e+00  5.6155674782e+00 -1.5608257770e+01  1.6623912905e+01  0.0000000000e+00 0. 9.
#pdf   -1   21  4.770417e-02  1.804248e-01  5.723416e+00  1.909348e-01  6.058768e-01
</event>
<event>
     4  9999  1.000000e+00  6.481527e+00  7.591131e-03  2.239054e-01
        2    -1     0     0   101     0  0.0000000000e+00  0.0000000000e+00  9.2956751053e+00  9.2956751053e+00  0.0000000000e+00 0. 9.
        2    -1     0     0   102     0  0.0000000000e+00  0.0000000000e+00 -1.4046595967e+01  1.4046595967e+01  0.0000000000e+00 0. 9.
        2     1     1     2   101     0 -4.1944242347e+00 -4.9378098385e+00 -1.1983407320e+01  1.3626669133e+01  3.3000000000e-01 0. 9.
        2     1     1     2   102     0  4.1944242347e+00  4.9378098385e+00  7.2324864587e+00  9.7156019390e+00  3.3000000000e-01 0. 9.
#pdf    2    2  9.295675e-02  1.404660e-01  6.481527e+00  6.238635e-01  6.225672e-01
</event>
<event>
     4  9999  1.000000e+00  5.222753e+00  7.573751e-03  2.379426e-01
       21    -1     0     0   102   101  0.0000000000e+00  0.0000000000e+00  1.2285237880e+01  1.2285237880e+01  0.0000000000e+00 0. 9.
       21    -1     0     0   104   103  0.0000000000e+00  0.0000000000e+00 -5.1811400640e+00  5.1811400640e+00  0.0000000000e+00 0. 9.
       21     1     1     2   104   101 -3.4755482209e+00 -3.8984251069e+00 -3.0498099054e+00  6.0480157250e+00  0.0000000000e+00 0. 9.
       21     1     1     2   102   103  3.4755482209e+00  3.8984251069e+00  1.0153907721e+01  1.1418362219e+01  0.0000000000e+00 0. 9.
#pdf   21   21  1.228524e-01  5.181140e-02  5.222753e+00  9.474588e-01  2.109246e+00
</event>
<event>
     4  9999  1.000000e+00  5.889089e+00  7.583406e-03  2.299268e-01
       21    -1     0     0   101   102  0.0000000000e+00  0.0000000000e+00  1.5760301505e+00  1.5760301505e+00  0.0000000000e+00 0. 9.
       21    -1     0     0   102   103  0.0000000000e+00  0.0000000000e+00 -2.7815589564e+01  2.7815589564e+01  0.0000000000e+00 0. 9.
       21     1     1     2   101   104  4.4823319606e+00 -3.8196946632e+00 -6.4033270516e+00  8.6996531227e+00  0.0000000000e+00 0. 9.
       21     1     1     2   104   103 -4.4823319606e+00  3.8196946632e+00 -1.9836232362e+01  2.0691966592e+01  0.0000000000e+00 0. 9.
#pdf   21   21  1.576030e-02  2.781559e-01  5.889089e+00  4.741595e+00  3.439313e-01
</event>
<event>
     4  9999  1.000000e+00  5.435467e+00  7.576958e-03  2.352164e-01
       21    -1     0     0   103   102  0.0000000000e+00  0.0000000000e+00  4.6334971503e+00  4.6334971503e+00  0.0000000000e+00 0. 9.
       -1    -1     0     0     0   101  0.0000000000e+00  0.0000000000e+00 -1.3323208729e+01  1.3323208729e+01  0.0000000000e+00 0. 9.
       21     1     1     2   103   101 -4.5720852026e+00 -2.9350107656e+00  2.1374073350e+00  5.8383868842e+00  0.0000000000e+00 0. 9.
       -1     1     1     2     0   102  4.5720852026e+00  2.9350107656e+00 -1.0827118913e+01  1.2118318995e+01  3.3000000000e-01 0. 9.
#pdf   21   -1  4.633497e-02  1.332321e-01  5.435467e+00  2.304300e+00  7.951070e-02
</event>
<event>
     4  9999  1.000000e+00  5.642672e+00  7.579966e-03  2.327175e-01
       21    -1     0     0   101   102  0.0000000000e+00  0.0000000000e+00  2.0050571848e+01  2.0050571848e+01  0.0000000000e+00 0. 9.
       21    -1     0     0   103   104  0.0000000000e+00  0.0000000000e+00 -2.2161328568e+00  2.2161328568e+00  0.0000000000e+00 0. 9.
       21     1     1     2   101   104  5.6231306461e+00  4.6920384713e-01  1.4844608452e+01  1.5880873736e+01  0.0000000000e+00 0. 9.
       21     1     1     2   103   102 -5.6231306461e+00 -4.6920384713e-01  2.9898305392e+00  6.3858309691e+00  0.0000000000e+00 0. 9.
#pdf   21   21  2.005057e-01  2.216133e-02  5.642672e+00  5.347533e-01  3.840279e+00
</event>
<event>
     4  9999  1.000000e+00  5.378734e+00  7.576115e-03  2.359268e-01
       21    -1     0     0   102   101  0.0000000000e+00  0.0000000000e+00  1.6051028801e+00  1.6051028801e+00  0.0000000000e+00 0. 9.
       21    -1     0     0   104   103  0.0000000000e+00  0.0000000000e+00 -1.8024319080e+01  1.8024319080e+01  0.0000000000e+00 0. 9.
       21     1     1     2   104   101  1.2351177756e+00  5.2350031768e+00 -8.1902725151e+00  9.7985375466e+00  0.0000000000e+00 0. 9.
       21     1     1     2   102   103 -1.2351177756e+00 -5.2350031768e+00 -8.2289436846e+00  9.8308844132e+00  0.0000000000e+00 0. 9.
#pdf   21   21  1.605103e-02  1.802432e-01  5.378734e+00  4.622981e+00  6.136984e-01
</event>
<event>
     4  9999  1.000000e+00  6.744375e+00  7.594340e-03  2.214998e-01
        1    -1     0     0   101     0  0.0000000000e+00  0.0000000000e+00  1.8573632168e+01  1.8573632168e+01  0.0000000000e+00 0. 9.
       21    -1     0     0   102   103  0.0000000000e+00  0.0000000000e+00 -3.9820517239e+00  3.9820517239e+00  0.0000000000e+00 0. 9.
        1     1     1     2   102     0  6.6469361013e+00 -1.1275430958e+00  3.0339346165e-01  6.7567788598e+00  3.3000000000e-01 0. 9.
       21     1     1     2   101   103 -6.6469361013e+00  1.1275430958e+00  1.4288186982e+01  1.5798905032e+01  0.0000000000e+00 0. 9.
#pdf    1   21  1.857363e-01  3.982052e-02  6.744375e+00  3.185519e-01  2.602756e+00
</event>
<event>
     4  9999  1.000000e+00  6.062505e+00  7.585743e-03  2.280698e-01
       21    -1     0     0   102   101  0.0000000000e+00  0.0000000000e+00  1.7889657650e+01  1.7889657650e+01  0.0000000000e+00 0. 9.
        3    -1     0     0   101     0  0.0000000000e+00  0.0000000000e+00 -2.8274117374e+00  2.8274117374e+00  0.0000000000e+00 0. 9.
       21     1     1     2   102   103 -3.9053140268e+00  4.6272789876e+00  1.2931068300e+01  1.4278505379e+01  0.0000000000e+00 0. 9.
        3     1     1     2   103     0  3.9053140268e+00 -4.6272789876e+00  2.1311776131e+00  6.4385640088e+00  5.0000000000e-01 0. 9.
#pdf   21    3  1.788966e-01  2.827412e-02  6.062505e+00  6.054587e-01  1.021426e-01
</event>
<event>
     4  9999  1.000000e+00  5.037422e+00  7.570850e-03  2.404651e-01
       21    -1     0     0   102   101  0.0000000000e+00  0.0000000000e+00  8.1003689857e+00  8.1003689857e+00  0.0000000000e+00 0. 9.
        1    -1     0     0   101     0  0.0000000000e+00  0.0000000000e+00 -1.4148006056e+01  1.4148006056e+01  0.0000000000e+00 0. 9.
       21     1     1     2   102   103 -4.9775692460e+00  7.6639855074e-01  6.7902382920e+00  8.4540462738e+00  0.0000000000e+00 0. 9.
        1     1     1     2   103     0  4.9775692460e+00 -7.6639855074e-01 -1.2837875362e+01  1.3794328768e+01  3.3000000000e-01 0. 9.
#pdf   21    1  8.100369e-02  1.414801e-01  5.037422e+00  1.439731e+00  3.693560e-01
</event>
<event>
     4  9999  1.000000e+00  6.064275e+00  7.585767e-03  2.280513e-01
       21    -1     0     0   102   101  0.0000000000e+00  0.0000000000e+00  2.1867167149e+00  2.1867167149e+00  0.0000000000e+00 0. 9.
        2    -1     0     0   101     0  0.0000000000e+00  0.0000000000e+00 -2.9086549547e+01  2.9086549547e+01  0.0000000000e+00 0. 9.
       21     1     1     2   102   103 -6.0616531688e+00  1.7883767947e-02 -3.2930378051e+00  6.8984097409e+00  0.0000000000e+00 0. 9.
        2     1     1     2   103     0  6.0616531688e+00 -1.7883767947e-02 -2.3606795027e+01  2.4374856521e+01  3.3000000000e-01 0. 9.
#pdf   21    2  2.186717e-02  2.908655e-01  6.064275e+00  3.905663e+00  4.826954e-01
</event>
<event>
     4  9999  1.000000e+00  5.530732e+00  7.578355e-03  2.340492e-01
       21    -1     0     0   102   101  0.0000000000e+00  0.0000000000e+00  1.6180299679e+00  1.6180299679e+00  0.0000000000e+00 0. 9.
       21    -1     0     0   101   103  0.0000000000e+00  0.0000000000e+00 -2.0811451725e+01  2.0811451725e+01  0.0000000000e+00 0. 9.
       21     1     1     2   104   103  2.0997634779e+00  5.1166385852e+00 -1.2990939315e+01  1.4119259944e+01  0.0000000000e+00 0. 9.
       21     1     1     2   102   104 -2.0997634779e+00 -5.1166385852e+00 -6.2024824420e+00  8.3102217490e+00  0.0000000000e+00 0. 9.
#pdf   21   21  1.618030e-02  2.081145e-01  5.530732e+00  4.623529e+00  5.130550e-01
</event>
<event>
     4  9999  1.000000e+00  5.566647e+00  7.578875e-03  2.336174e-01
       21    -1     0     0   102   101  0.0000000000e+00  0.0000000000e+00  1.5850461618e+01  1.5850461618e+01  0.0000000000e+00 0. 9.
       21    -1     0     0   101   103  0.0000000000e+00  0.0000000000e+00 -1.2502126989e+01  1.2502126989e+01  0.0000000000e+00 0. 9.
       21     1     1     2   104   103 -5.2122587843e+00 -1.9544602340e+00 -1.1346642034e+01  1.2638585438e+01  0.0000000000e+00 0. 9.
       21     1     1     2   102   104  5.2122587843e+00  1.9544602340e+00  1.4694976663e+01  1.5714003168e+01  0.0000000000e+00 0. 9.
#pdf   21   21  1.585046e-01  1.250213e-01  5.566647e+00  7.079595e-01  9.231048e-01
</event>
<event>
     4  9999  1.000000e+00  5.193960e+00  7.573307e-03  2.383251e-01
       21    -1     0     0   102   101  0.0000000000e+00  0.0000000000e+00  4.0394923683e+00  4.0394923683e+00  0.0000000000e+00 0. 9.
       21    -1     0     0   104   103  0.0000000000e+00  0.0000000000e+00 -2.0078281583e+01  2.0078281583e+01  0.0000000000e+00 0. 9.
       21     1     1     2   104   101  2.9953911206e+00  4.2432124705e+00 -1.7870726239e+01  1.8610214301e+01  0.0000000000e+00 0. 9.
       21     1     1     2   102   103 -2.9953911206e+00 -4.2432124705e+00  1.8319370245e+00  5.5075596498e+00  0.0000000000e+00 0. 9.
#pdf   21   21  4.039492e-02  2.007828e-01  5.193960e+00  2.547069e+00  5.433716e-01
</event>
<event>
     4  9999  1.000000e+00  5.348133e+00  7.575656e-03  2.363150e-01
       21    -1     0     0   102   101  0.0000000000e+00  0.0000000000e+00  1.2880343013e+00  1.2880343013e+00  0.0000000000e+00 0. 9.
        2    -1     0     0   101     0  0.0000000000e+00  0.0000000000e+00 -3.3687200925e+01  3.3687200925e+01  0.0000000000e+00 0. 9.
       21     1     1     2   102   103 -2.3784462683e+00 -4.7864016527e+00 -5.9867731926e+00  8.0254657617e+00  0.0000000000e+00 0. 9.
        2     1     1     2   103     0  2.3784462683e+00  4.7864016527e+00 -2.6412393431e+01  2.6949769464e+01  3.3000000000e-01 0. 9.
#pdf   21    2  1.288034e-02  3.368720e-01  5.348133e+00  5.221716e+00  4.286473e-01
</event>
<event>
     4  9999  1.000000e+00  5.108476e+00  7.571974e-03  2.394809e-01
       21    -1     0     0   102   101  0.0000000000e+00  0.0000000000e+00  3.0175466474e+01  3.0175466474e+01  0.0000000000e+00 0. 9.
       21    -1     0     0   103   102  0.0000000000e+00  0.0000000000e+00 -1.6020865333e+00  1.6020865333e+00  0.0000000000e+00 0. 9.
       21     1     1     2   104   101 -3.2220388876e+00  3.9642133579e+00  2.5065182403e+01  2.5580459164e+01  0.0000000000e+00 0. 9.
       21     1     1     2   103   104  3.2220388876e+00 -3.9642133579e+00  3.5081975379e+00  6.1970938435e+00  0.0000000000e+00 0. 9.
#pdf   21   21  3.017547e-01  1.602087e-02  5.108476e+00  3.202826e-01  4.582245e+00
</event>
<event>
     4  9999  1.000000e+00  5.727057e+00  7.581160e-03  2.317407e-01
       21    -1     0     0   102   101  0.0000000000e+00  0.0000000000e+00  5.1036217708e+00  5.1036217708e+00  0.0000000000e+00 0. 9.
       21    -1     0     0   101   103  0.0000000000e+00  0.0000000000e+00 -9.5445675001e+00  9.5445675001e+00  0.0000000000e+00 0. 9.
       21     1     1     2   104   103  4.8957920568e+00  2.9715988758e+00 -6.4065601704e+00  8.5932062096e+00  0.0000000000e+00 0. 9.
       21     1     1     2   102   104 -4.8957920568e+00 -2.9715988758e+00  1.9656144411e+00  6.0549830614e+00  0.0000000000e+00 0. 9.
#pdf   21   21  5.103622e-02  9.544568e-02  5.727057e+00  2.137690e+00  1.220645e+00
</event>
<event>
     4  9999  1.000000e+00  7.516013e+00  7.603096e-03  2.151993e-01
       21    -1     0     0   102   101  0.0000000000e+00  0.0000000000e+00  4.3455585333e+00  4.3455585333e+00  0.0000000000e+00 0. 9.
       21    -1     0     0   101   103  0.0000000000e+00  0.0000000000e+00 -1.3003396203e+01  1.3003396203e+01  0.0000000000e+00 0. 9.
       21     1     1     2   104   103 -7.4602759995e+00 -9.1363437802e-01 -4.4774782262e+00  8.7486145778e+00  0.0000000000e+00 0. 9.
       21     1     1     2   102   104  7.4602759995e+00  9.1363437802e-01 -4.1803594434e+00  8.6003401585e+00  0.0000000000e+00 0. 9.
#pdf   21   21  4.345559e-02  1.300340e-01  7.516013e+00  2.437502e+00  8.509198e-01
</event>
<event>
     4  9999  1.000000e+00  6.332057e+00  7.589249e-03  2.253418e-01
       21    -1     0     0   101   102  0.0000000000e+00  0.0000000000e+00  1.9391716119e+01  1.9391716119e+01  0.0000000000e+00 0. 9.
       21    -1     0     0   103   104  0.0000000000e+00  0.0000000000e+00 -4.6497981143e+00  4.6497981143e+00  0.0000000000e+00 0. 9.
       21     1     1     2   101   104 -5.8988583423e+00 -2.3018301335e+00  1.6328870769e+01  1.7513622477e+01  0.0000000000e+00 0. 9.
       21     1     1     2   103   102  5.8988583423e+00  2.3018301335e+00 -1.5869527637e+00  6.5278917561e+00  0.0000000000e+00 0. 9.
#pdf   21   21  1.939172e-01  4.649798e-02  6.332057e+00  5.437927e-01  2.304959e+00
</event>
<event>
     4  9999  1.000000e+00  5.102468e+00  7.571880e-03  2.395632e-01
        2    -1     0     0   101     0  0.0000000000e+00  0.0000000000e+00  3.8322646451e+01  3.8322646451e+01  0.0000000000e+00 0. 9.
       21    -1     0     0   102   101  0.0000000000e+00  0.0000000000e+00 -1.2758348165e+00  1.2758348165e+00  0.0000000000e+00 0. 9.
        2     1     1     2   103     0  5.0543012448e+00  6.7840546364e-01  3.2063868099e+01  3.2468549899e+01  3.3000000000e-01 0. 9.
       21     1     1     2   102   103 -5.0543012448e+00 -6.7840546364e-01  4.9829435353e+00  7.1299313687e+00  0.0000000000e+00 0. 9.
#pdf    2   21  3.832265e-01  1.275835e-02  5.102468e+00  3.664576e-01  5.194251e+00
</event>
<event>
     4  9999  1.000000e+00  6.269252e+00  7.588446e-03  2.259611e-01
       21    -1     0     0   102   101  0.0000000000e+00  0.0000000000e+00  3.8361286620e+01  3.8361286620e+01  0.0000000000e+00 0. 9.
       21    -1     0     0   104   103  0.0000000000e+00  0.0000000000e+00 -1.0245728790e+00  1.0245728790e+00  0.0000000000e+00 0. 9.
       21     1     1     2   104   101 -6.1703841031e+00 -1.1090018486e+00  1.8604846443e+01  1.9632723607e+01  0.0000000000e+00 0. 9.
       21     1     1     2   102   103  6.1703841031e+00  1.1090018486e+00  1.8731867298e+01  1.9753135892e+01  0.0000000000e+00 0. 9.
#pdf   21   21  3.836129e-01  1.024573e-02  6.269252e+00  1.749665e-01  6.106848e+00
</event>
<event>
     4  9999  1.000000e+00  8.237059e+00  7.610517e-03  2.101443e-01
        1    -1     0     0   101     0  0.0000000000e+00  0.0000000000e+00  6.7178073495e+01  6.7178073495e+01  0.0000000000e+00 0. 9.
       21    -1     0     0   102   103  0.0000000000e+00  0.0000000000e+00 -2.4503474969e+00  2.4503474969e+00  0.0000000000e+00 0. 9.
        1     1     1     2   102     0  4.3410365969e+00  6.9987219354e+00  5.9056605629e+01  5.9629005324e+01  3.3000000000e-01 0. 9.
       21     1     1     2   101   103 -4.3410365969e+00 -6.9987219354e+00  5.6711203689e+00  9.9994156681e+00  0.0000000000e+00 0. 9.
#pdf    1   21  6.717807e-01  2.450347e-02  8.237059e+00  1.164718e-02  3.730040e+00
</event>
<event>
     4  9999  1.000000e+00  5.833060e+00  7.582636e-03  2.305451e-01
       21    -1     0     0   101   102  0.0000000000e+00  0.0000000000e+00  5.3370818932e+01  5.3370818932e+01  0.0000000000e+00 0. 9.
       21    -1     0     0   103   104  0.0000000000e+00  0.0000000000e+00 -6.3836861582e-01  6.3836861582e-01  0.0000000000e+00 0. 9.
       21     1     1     2   101   104 -1.3154293979e+00  5.6828019002e+00  2.7354860890e+01  2.7969858888e+01  0.0000000000e+00 0. 9.
       21     1     1     2   103   102  1.3154293979e+00 -5.6828019002e+00  2.5377589426e+01  2.6039328659e+01  0.0000000000e+00 0. 9.
#pdf   21   21  5.337082e-01  6.383686e-03  5.833060e+00  4.061701e-02  7.670063e+00
</event>
<event>
     4  9999  1.000000e+00  6.350537e+00  7.589484e-03  2.251614e-01
       21    -1     0     0   102   103  0.0000000000e+00  0.0000000000e+00  7.9673205233e-01  7.9673205233e-01  0.0000000000e+00 0. 9.
        2    -1     0     0   101     0  0.0000000000e+00  0.0000000000e+00 -5.5819720540e+01  5.5819720540e+01  0.0000000000e+00 0. 9.
       21     1     1     2   101   103  6.1829601746e+00 -1.4321169312e+00 -3.6130578770e+01  3.6683765860e+01  0.0000000000e+00 0. 9.
        2     1     1     2   102     0 -6.1829601746e+00  1.4321169312e+00 -1.8892409719e+01  1.9932686733e+01  3.3000000000e-01 0. 9.
#pdf   21    2  7.967321e-03  5.581972e-01  6.350537e+00  7.000849e+00  1.378030e-01
</event>
<event>
     4  9999  1.000000e+00  1.007803e+01  7.627085e-03  1.998096e-01
        2    -1     0     0   101     0  0.0000000000e+00  0.0000000000e+00  2.9286247143e+01  2.9286247143e+01  0.0000000000e+00 0. 9.
       21    -1     0     0   102   103  0.0000000000e+00  0.0000000000e+00 -4.3019791205e+00  4.3019791205e+00  0.0000000000e+00 0. 9.
        2     1     1     2   102     0  5.5745202150e+00 -8.3932994733e+00  1.9887301131e+01  2.2296555742e+01  3.3000000000e-01 0. 9.
       21     1     1     2   101   103 -5.5745202150e+00  8.3932994733e+00  5.0969668915e+00  1.1291670522e+01  0.0000000000e+00 0. 9.
#pdf    2   21  2.928625e-01  4.301979e-02  1.007803e+01  4.454261e-01  2.461269e+00
</event>
<event>
     4  9999  1.000000e+00  5.507395e+00  7.578015e-03  2.343322e-01
       -2    -1     0     0     0   101  0.0000000000e+00  0.0000000000e+00  1.5531712497e+01  1.5531712497e+01  0.0000000000e+00 0. 9.
       21    -1     0     0   103   102  0.0000000000e+00  0.0000000000e+00 -2.0178732848e+00  2.0178732848e+00  0.0000000000e+00 0. 9.
       -2     1     1     2     0   102  3.4263909273e+00  4.3056444700e+00  8.3363480511e+00  9.9941146641e+00  3.3000000000e-01 0. 9.
       21     1     1     2   103   101 -3.4263909273e+00 -4.3056444700e+00  5.1774911614e+00  7.5554711180e+00  0.0000000000e+00 0. 9.
#pdf   -2   21  1.553171e-01  2.017873e-02  5.507395e+00  4.272633e-02  4.055619e+00
</event>
<event>
     4  9999  1.000000e+00  5.000646e+00  7.570262e-03  2.409832e-01
       21    -1     0     0   102   103  0.0000000000e+00  0.0000000000e+00  5.1962366234e+00  5.1962366234e+00  0.0000000000e+00 0. 9.
        1    -1     0     0   101     0  0.0000000000e+00  0.0000000000e+00 -1.3242100736e+01  1.3242100736e+01  0.0000000000e+00 0. 9.
       21     1     1     2   101   103  2.6154282847e+00 -4.2598370278e+00  3.3313635167e+00  6.0070508152e+00  0.0000000000e+00 0. 9.
        1     1     1     2   102     0 -2.6154282847e+00  4.2598370278e+00 -1.1377227629e+01  1.2431286544e+01  3.3000000000e-01 0. 9.
#pdf   21    1  5.196237e-02  1.324210e-01  5.000646e+00  2.101972e+00  3.768031e-01
</event>
<event>
     4  9999  1.000000e+00  7.824685e+00  7.606355e-03  2.129487e-01
       21    -1     0     0   102   103  0.0000000000e+00  0.0000000000e+00  6.5982148411e+00  6.5982148411e+00  0.0000000000e+00 0. 9.
        1    -1     0     0   101     0  0.0000000000e+00  0.0000000000e+00 -2.3254114761e+01  2.3254114761e+01  0.0000000000e+00 0. 9.
       21     1     1     2   101   103 -3.7203849103e+00  6.8820564174e+00  3.2425575289e+00  8.4686565487e+00  0.0000000000e+00 0. 9.
        1     1     1     2   102     0  3.7203849103e+00 -6.8820564174e+00 -1.9898457449e+01  2.1383673054e+01  3.3000000000e-01 0. 9.
#pdf   21    1  6.598215e-02  2.325411e-01  7.824685e+00  1.706259e+00  2.638884e-01
</event>
<event>
     4  9999  1.000000e+00  5.878647e+00  7.583263e-03  2.300413e-01
       21    -1     0     0   101   102  0.0000000000e+00  0.0000000000e+00  6.6305725322e+00  6.6305725322e+00  0.0000000000e+00 0. 9.
       21    -1     0     0   103   104  0.0000000000e+00  0.0000000000e+00 -5.2418790671e+00  5.2418790671e+00  0.0000000000e+00 0. 9.
       21     1     1     2   101   104  2.3444950484e+00  5.3909026515e+00  1.1425875194e+00  5.9886554977e+00  0.0000000000e+00 0. 9.
       21     1     1     2   103   102 -2.3444950484e+00 -5.3909026515e+00  2.4610594569e-01  5.8837961017e+00  0.0000000000e+00 0. 9.
#pdf   21   21  6.630573e-02  5.241879e-02  5.878647e+00  1.715454e+00  2.092429e+00
</event>
<event>
     4  9999  1.000000e+00  6.639786e+00  7.593078e-03  2.224394e-01
       21    -1     0     0   101   102  0.0000000000e+00  0.0000000000e+00  5.6630640376e+00  5.6630640376e+00  0.0000000000e+00 0. 9.
       21    -1     0     0   103   104  0.0000000000e+00  0.0000000000e+00 -1.1524145769e+01  1.1524145769e+01  0.0000000000e+00 0. 9.
       21     1     1     2   101   104  9.7110199621e-01  6.5683878218e+00 -7.8256143750e+00  1.0262894232e+01  0.0000000000e+00 0. 9.
       21     1     1     2   103   102 -9.7110199621e-01 -6.5683878218e+00  1.9645326441e+00  6.9243155744e+00  0.0000000000e+00 0. 9.
#pdf   21   21  5.663064e-02  1.152415e-01  6.639786e+00  1.961660e+00  9.886556e-01
</event>
<event>
     4  9999  1.000000e+00  9.733327e+00  7.624151e-03  2.015195e-01
       21    -1     0     0   101   102  0.0000000000e+00  0.0000000000e+00  5.0125067141e+00  5.0125067141e+00  0.0000000000e+00 0. 9.
       21    -1     0     0   103   104  0.0000000000e+00  0.0000000000e+00 -3.1148472174e+01  3.1148472174e+01  0.0000000000e+00 0. 9.
       21     1     1     2   101   104  9.2886265074e+00  2.9084490814e+00 -1.7301972568e+00  9.8859112377e+00  0.0000000000e+00 0. 9.
       21     1     1     2   103   102 -9.2886265074e+00 -2.9084490814e+00 -2.4405768203e+01  2.6275067650e+01  0.0000000000e+00 0. 9.
#pdf   21   21  5.012507e-02  3.114847e-01  9.733327e+00  2.164634e+00  2.334817e-01
</event>
<event>
     4  9999  1.000000e+00  7.965256e+00  7.607797e-03  2.119681e-01
       21    -1     0     0   102   103  0.0000000000e+00  0.0000000000e+00  4.1081620220e+00  4.1081620220e+00  0.0000000000e+00 0. 9.
        2    -1     0     0   101     0  0.0000000000e+00  0.0000000000e+00 -1.5484450517e+01  1.5484450517e+01  0.0000000000e+00 0. 9.
       21     1     1     2   101   103  6.0130967736e+00  5.2185896150e+00 -5.1834985115e+00  9.5005087862e+00  0.0000000000e+00 0. 9.
        2     1     1     2   102     0 -6.0130967736e+00 -5.2185896150e+00 -6.1927899838e+00  1.0092103753e+01  3.3000000000e-01 0. 9.
#pdf   21    2  4.108162e-02  1.548445e-01  7.965256e+00  2.550759e+00  6.090077e-01
</event>
<event>
     4  9999  1.000000e+00  5.394165e+00  7.576345e-03  2.357324e-01
       21    -1     0     0   102   101  0.0000000000e+00  0.0000000000e+00  8.3190733163e+00  8.3190733163e+00  0.0000000000e+00 0. 9.
       21    -1     0     0   104   103  0.0000000000e+00  0.0000000000e+00 -2.1842548437e+01  2.1842548437e+01  0.0000000000e+00 0. 9.
       21     1     1     2   104   101  3.3135792831e+00  4.2564308426e+00 -2.0582467285e+01  2.1277569662e+01  0.0000000000e+00 0. 9.
       21     1     1     2   102   103 -3.3135792831e+00 -4.2564308426e+00  7.0589921644e+00  8.8840520913e+00  0.0000000000e+00 0. 9.
#pdf   21   21  8.319073e-02  2.184255e-01  5.394165e+00  1.400361e+00  4.861331e-01
</event>
<event>
     4  9999  1.000000e+00  5.491771e+00  7.577786e-03  2.345227e-01
       21    -1     0     0   102   101  0.0000000000e+00  0.0000000000e+00  1.4835510299e+00  1.4835510299e+00  0.0000000000e+00 0. 9.
       21    -1     0     0   104   103  0.0000000000e+00  0.0000000000e+00 -3.1461016310e+01  3.1461016310e+01  0.0000000000e+00 0. 9.
       21     1     1     2   104   101 -5.4648004473e+00 -5.4360695255e-01 -2.4786982804e+01  2.5388069422e+01  0.0000000000e+00 0. 9.
       21     1     1     2   102   103  5.4648004473e+00  5.4360695255e-01 -5.1904824762e+00  7.5564979179e+00  0.0000000000e+00 0. 9.
#pdf   21   21  1.483551e-02  3.146102e-01  5.491771e+00  4.852664e+00  2.898687e-01
</event>
<event>
     4  9999  1.000000e+00  7.220717e+00  7.599854e-03  2.174883e-01
       21    -1     0     0   102   101  0.0000000000e+00  0.0000000000e+00  5.7079491608e+00  5.7079491608e+00  0.0000000000e+00 0. 9.
        2    -1     0     0   101     0  0.0000000000e+00  0.0000000000e+00 -2.8281267775e+01  2.8281267775e+01  0.0000000000e+00 0. 9.
       21     1     1     2   102   103  6.2297595845e+00  3.6484602009e+00  2.6962116622e+00  7.7065377210e+00  0.0000000000e+00 0. 9.
        2     1     1     2   103     0 -6.2297595845e+00 -3.6484602009e+00 -2.5269530276e+01  2.6282679214e+01  3.3000000000e-01 0. 9.
#pdf   21    2  5.707949e-02  2.828127e-01  7.220717e+00  1.945468e+00  4.810771e-01
</event>
<event>
     4  9999  1.000000e+00  7.703498e+00  7.605091e-03  2.138159e-01
       21    -1     0     0   102   101  0.0000000000e+00  0.0000000000e+00  2.3852553654e+01  2.3852553654e+01  0.0000000000e+00 0. 9.
       21    -1     0     0   101   103  0.0000000000e+00  0.0000000000e+00 -8.9819774436e+00  8.9819774436e+00  0.0000000000e+00 0. 9.
       21     1     1     2   104   103 -5.7718302511e-02 -7.7032815534e+00 -6.5242811852e+00  1.0095054387e+01  0.0000000000e+00 0. 9.
       21     1     1     2   102   104  5.7718302511e-02  7.7032815534e+00  2.1394857395e+01  2.2739476710e+01  0.0000000000e+00 0. 9.
#pdf   21   21  2.385255e-01  8.981977e-02  7.703498e+00  3.947917e-01  1.267668e+00
</event>
<event>
     4  9999  1.000000e+00  5.482968e+00  7.577657e-03  2.346304e-01
       21    -1     0     0   102   101  0.0000000000e+00  0.0000000000e+00  2.6908090432e+01  2.6908090432e+01  0.0000000000e+00 0. 9.
       21    -1     0     0   101   103  0.0000000000e+00  0.0000000000e+00 -6.3257631638e+00  6.3257631638e+00  0.0000000000e+00 0. 9.
       21     1     1     2   104   103  4.4585440709e+00  3.1912893289e+00 -4.7870993468e+00  7.2786855248e+00  0.0000000000e+00 0. 9.
       21     1     1     2   102   104 -4.4585440709e+00 -3.1912893289e+00  2.5369426615e+01  2.5955168071e+01  0.0000000000e+00 0. 9.
#pdf   21   21  2.690809e-01  6.325763e-02  5.482968e+00  3.696001e-01  1.790228e+00
</event>
<event>
     4  9999  1.000000e+00  7.171407e+00  7.599300e-03  2.178845e-01
       21    -1     0     0   102   101  0.0000000000e+00  0.0000000000e+00  3.3839733329e+00  3.3839733329e+00  0.0000000000e+00 0. 9.
        2    -1     0     0   101     0  0.0000000000e+00  0.0000000000e+00 -1.7849585125e+01  1.7849585125e+01  0.0000000000e+00 0. 9.
       21     1     1     2   102   103  6.3703148900e+00  3.2866120300e+00 -3.1393045973e+00  7.8254689181e+00  0.0000000000e+00 0. 9.
        2     1     1     2   103     0 -6.3703148900e+00 -3.2866120300e+00 -1.1326307195e+01  1.3408089540e+01  3.3000000000e-01 0. 9.
#pdf   21    2  3.383973e-02  1.784959e-01  7.171407e+00  2.944361e+00  5.970401e-01
</event>
<event>
     4  9999  1.000000e+00  5.792471e+00  7.582074e-03  2.309989e-01
        1    -1     0     0   101     0  0.0000000000e+00  0.0000000000e+00  1.0575655384e+01  1.0575655384e+01  0.0000000000e+00 0. 9.
       21    -1     0     0   102   101  0.0000000000e+00  0.0000000000e+00 -1.0866636569e+01  1.0866636569e+01  0.0000000000e+00 0. 9.
        1     1     1     2   103     0 -5.5826935614e+00  1.5395973870e+00  8.8736496691e+00  1.0601291712e+01  3.3000000000e-01 0. 9.
       21     1     1     2   102   103  5.5826935614e+00 -1.5395973870e+00 -9.1646308544e+00  1.0841000240e+01  0.0000000000e+00 0. 9.
#pdf    1   21  1.057566e-01  1.086664e-01  5.792471e+00  3.932413e-01  1.067608e+00
</event>
<event>
     4  9999  1.000000e+00  5.672574e+00  7.580391e-03  2.323688e-01
       21    -1     0     0   102   103  0.0000000000e+00  0.0000000000e+00  1.1942985575e+00  1.1942985575e+00  0.0000000000e+00 0. 9.
        2    -1     0     0   101     0  0.0000000000e+00  0.0000000000e+00 -2.7171120203e+01  2.7171120203e+01  0.0000000000e+00 0. 9.
       21     1     1     2   101   103 -3.4650958707e+00 -4.4852238696e+00 -1.1679325971e+01  1.2981940444e+01  0.0000000000e+00 0. 9.
        2     1     1     2   102     0  3.4650958707e+00  4.4852238696e+00 -1.4297495675e+01  1.5383478317e+01  3.3000000000e-01 0. 9.
#pdf   21    2  1.194299e-02  2.717112e-01  5.672574e+00  5.505906e+00  5.125979e-01
</event>
<event>
     4  9999  1.000000e+00  5.941339e+00  7.584117e-03  2.293584e-01
       21    -1     0     0   102   101  0.0000000000e+00  0.0000000000e+00  3.6149647431e+01  3.6149647431e+01  0.0000000000e+00 0. 9.
       21    -1     0     0   104   103  0.0000000000e+00  0.0000000000e+00 -1.8694752621e+00  1.8694752621e+00  0.0000000000e+00 0. 9.
       21     1     1     2   104   101  4.2032463349e+00 -4.1990743492e+00  3.0278294778e+01  3.0855706762e+01  0.0000000000e+00 0. 9.
       21     1     1     2   102   103 -4.2032463349e+00  4.1990743492e+00  4.0018773907e+00  7.1634159305e+00  0.0000000000e+00 0. 9.
#pdf   21   21  3.614965e-01  1.869475e-02  5.941339e+00  2.105866e-01  4.291036e+00
</event>
<event>
     4  9999  1.000000e+00  5.130478e+00  7.572319e-03  2.391805e-01
        1    -1     0     0   101     0  0.0000000000e+00  0.0000000000e+00  1.6712125657e+01  1.6712125657e+01  0.0000000000e+00 0. 9.
        1    -1     0     0   102     0  0.0000000000e+00  0.0000000000e+00 -1.7179148505e+00  1.7179148505e+00  0.0000000000e+00 0. 9.
        1     1     1     2   101     0  4.4120178025e+00  2.5992420608e+00  4.8443915625e+00  7.0568399437e+00  3.3000000000e-01 0. 9.
        1     1     1     2   102     0 -4.4120178025e+00 -2.5992420608e+00  1.0149819244e+01  1.1373200564e+01  3.3000000000e-01 0. 9.
#pdf    1    1  1.671213e-01  1.717915e-02  5.130478e+00  3.461309e-01  4.529566e-01
</event>
<event>
     4  9999  1.000000e+00  5.834913e+00  7.582662e-03  2.305245e-01
       -1    -1     0     0     0   101  0.0000000000e+00  0.0000000000e+00  1.2330149459e+01  1.2330149459e+01  0.0000000000e+00 0. 9.
       21    -1     0     0   103   102  0.0000000000e+00  0.0000000000e+00 -4.6130919235e+00  4.6130919235e+00  0.0000000000e+00 0. 9.
       -1     1     1     2     0   102 -2.5664693280e+00 -5.2370665447e+00  9.2253590804e+00  1.0919239029e+01  3.3000000000e-01 0. 9.
       21     1     1     2   103   101  2.5664693280e+00  5.2370665447e+00 -1.5083015450e+00  6.0240023536e+00  0.0000000000e+00 0. 9.
#pdf   -1   21  1.233015e-01  4.613092e-02  5.834913e+00  8.678312e-02  2.315502e+00
</event>
<event>
     4  9999  1.000000e+00  5.301032e+00  7.574946e-03  2.369193e-01
       21    -1     0     0   101   102  0.0000000000e+00  0.0000000000e+00  1.7251738378e+00  1.7251738378e+00  0.0000000000e+00 0. 9.
       21    -1     0     0   103   104  0.0000000000e+00  0.0000000000e+00 -1.6907951106e+01  1.6907951106e+01  0.0000000000e+00 0. 9.
       21     1     1     2   101   104  7.4602897047e-01 -5.2482742662e+00 -9.3742709867e+00  1.0769303530e+01  0.0000000000e+00 0. 9.
       21     1     1     2   103   102 -7.4602897047e-01  5.2482742662e+00 -5.8085062813e+00  7.8638214132e+00  0.0000000000e+00 0. 9.
#pdf   21   21  1.725174e-02  1.690795e-01  5.301032e+00  4.422955e+00  6.627255e-01
</event>
<event>
     4  9999  1.000000e+00  5.738072e+00  7.581315e-03  2.316149e-01
       21    -1     0     0   102   101  0.0000000000e+00  0.0000000000e+00  3.2129992305e+00  3.2129992305e+00  0.0000000000e+00 0. 9.
       21    -1     0     0   104   103  0.0000000000e+00  0.0000000000e+00 -1.0498717933e+01  1.0498717933e+01  0.0000000000e+00 0. 9.
       21     1     1     2   104   101 -8.6659378921e-01  5.6722558023e+00 -4.7032082521e+00  7.4192747991e+00  0.0000000000e+00 0. 9.
       21     1     1     2   102   103  8.6659378921e-01 -5.6722558023e+00 -2.5825104502e+00  6.2924423642e+00  0.0000000000e+00 0. 9.
#pdf   21   21  3.212999e-02  1.049872e-01  5.738072e+00  3.015084e+00  1.107636e+00
</event>
<event>
     4  9999  1.000000e+00  5.256354e+00  7.574266e-03  2.375004e-01
       21    -1     0     0   101   102  0.0000000000e+00  0.0000000000e+00  2.1985071958e+01  2.1985071958e+01  0.0000000000e+00 0. 9.
       21    -1     0     0   103   101  0.0000000000e+00  0.0000000000e+00 -1.2568679691e+00  1.2568679691e+00  0.0000000000e+00 0. 9.
        1     1     1     2   103     0  5.1740971801e+00 -8.6550030700e-01  1.0486399607e+01  1.1730040457e+01  3.3000000000e-01 0. 9.
       -1     1     1     2     0   102 -5.1740971801e+00  8.6550030700e-01  1.0241804382e+01  1.1511899470e+01  3.3000000000e-01 0. 9.
#pdf   21   21  2.198507e-01  1.256868e-02  5.256354e+00  4.852652e-01  5.271392e+00
</event>
<event>
     4  9999  1.000000e+00  5.283304e+00  7.574676e-03  2.371490e-01
       21    -1     0     0   102   101  0.0000000000e+00  0.0000000000e+00  3.5713938884e+01  3.5713938884e+01  0.0000000000e+00 0. 9.
        2    -1     0     0   101     0  0.0000000000e+00  0.0000000000e+00 -1.3978073981e+01  1.3978073981e+01  0.0000000000e+00 0. 9.
       21     1     1     2   102   103 -2.2940288243e+00  4.7589583104e+00  3.5007409712e+01  3.5403799050e+01  0.0000000000e+00 0. 9.
        2     1     1     2   103     0  2.2940288243e+00 -4.7589583104e+00 -1.3271544808e+01  1.4288213816e+01  3.3000000000e-01 0. 9.
#pdf   21    2  3.571394e-01  1.397807e-01  5.283304e+00  2.302539e-01  6.287916e-01
</event>
<event>
     4  9999  1.000000e+00  5.450245e+00  7.577176e-03  2.350332e-01
       -2    -1     0     0     0   101  0.0000000000e+00  0.0000000000e+00  3.1789658537e+00  3.1789658537e+00  0.0000000000e+00 0. 9.
       21    -1     0     0   103   102  0.0000000000e+00  0.0000000000e+00 -5.6997501811e+01  5.6997501811e+01  0.0000000000e+00 0. 9.
       -2     1     1     2     0   102  4.7606729176e+00  2.6518357050e+00  5.9409455844e-01  5.4916379687e+00  3.3000000000e-01 0. 9.
       21     1     1     2   103   101 -4.7606729176e+00 -2.6518357050e+00 -5.4412630516e+01  5.4684829696e+01  0.0000000000e+00 0. 9.
#pdf   -2   21  3.178966e-02  5.699750e-01  5.450245e+00  2.027773e-01  2.621101e-02
</event>
<event>
     4  9999  1.000000e+00  5.181878e+00  7.573120e-03  2.384867e-01
       21    -1     0     0   102   101  0.0000000000e+00  0.0000000000e+00  3.4295177854e+00  3.4295177854e+00  0.0000000000e+00 0. 9.
       21    -1     0     0   104   103  0.0000000000e+00  0.0000000000e+00 -8.1545266690e+00  8.1545266690e+00  0.0000000000e+00 0. 9.
       21     1     1     2   104   101 -4.1428242672e+00  3.1126940913e+00 -1.2063840385e+00  5.3204529754e+00  0.0000000000e+00 0. 9.
       21     1     1     2   102   103  4.1428242672e+00 -3.1126940913e+00 -3.5186248451e+00  6.2635914790e+00  0.0000000000e+00 0. 9.
#pdf   21   21  3.429518e-02  8.154527e-02  5.181878e+00  2.859733e+00  1.429233e+00
</event>
<event>
     4  9999  1.000000e+00  5.760682e+00  7.581631e-03  2.313577e-01
        2    -1     0     0   101     0  0.0000000000e+00  0.0000000000e+00  2.8387666667e+01  2.8387666667e+01  0.0000000000e+00 0. 9.
       -2    -1     0     0     0   102  0.0000000000e+00  0.0000000000e+00 -1.6852419958e+00  1.6852419958e+00  0.0000000000e+00 0. 9.
       21     1     1     2   101   103 -2.1653627689e+00  5.3382266912e+00  2.1673387496e+01  2.2425904345e+01  0.0000000000e+00 0. 9.
       21     1     1     2   103   102  2.1653627689e+00 -5.3382266912e+00  5.0290371747e+00  7.6470043175e+00  0.0000000000e+00 0. 9.
#pdf    2   -2  2.838767e-01  1.685242e-02  5.760682e+00  4.957493e-01  2.910523e-01
</event>
<event>
     4  9999  1.000000e+00  5.640742e+00  7.579939e-03  2.327401e-01
       -2    -1     0     0     0   101  0.0000000000e+00  0.0000000000e+00  1.0032660249e+01  1.0032660249e+01  0.0000000000e+00 0. 9.
        1    -1     0     0   101     0  0.0000000000e+00  0.0000000000e+00 -9.0889959730e+00  9.0889959730e+00  0.0000000000e+00 0. 9.
       -2     1     1     2     0   102 -4.8062151430e+00 -2.9462301464e+00  8.1817415960e+00  9.9413163927e+00  3.3000000000e-01 0. 9.
        1     1     1     2   102     0  4.8062151430e+00  2.9462301464e+00 -7.2380773205e+00  9.1803398289e+00  3.3000000000e-01 0. 9.
#pdf   -2    1  1.003266e-01  9.088996e-02  5.640742e+00  7.390818e-02  4.028230e-01
</event>
<event>
     4  9999  1.000000e+00  5.571652e+00  7.578947e-03  2.335576e-01
       21    -1     0     0   102   101  0.0000000000e+00  0.0000000000e+00  3.1874790110e+00  3.1874790110e+00  0.0000000000e+00 0. 9.
       21    -1     0     0   101   103  0.0000000000e+00  0.0000000000e+00 -2.0964000027e+01  2.0964000027e+01  0.0000000000e+00 0. 9.
       21     1     1     2   104   103 -5.5463525336e+00 -5.3035624096e-01 -1.7724492889e+01  1.8579584289e+01  0.0000000000e+00 0. 9.
       21     1     1     2   102   104  5.5463525336e+00  5.3035624096e-01 -5.2028126869e-02  5.5718947491e+00  0.0000000000e+00 0. 9.
#pdf   21   21  3.187479e-02  2.096400e-01  5.571652e+00  3.025476e+00  5.076024e-01
</event>
<event>
     4  9999  1.000000e+00  6.138929e+00  7.586753e-03  2.272775e-01
        2    -1     0     0   101     0  0.0000000000e+00  0.0000000000e+00  8.4705578594e+00  8.4705578594e+00  0.0000000000e+00 0. 9.
       21    -1     0     0   102   103  0.0000000000e+00  0.0000000000e+00 -7.5196299700e+00  7.5196299700e+00  0.0000000000e+00 0. 9.
        2     1     1     2   102     0 -1.8493485163e-01  6.1335173323e+00  5.5824291687e+00  8.3022076093e+00  3.3000000000e-01 0. 9.
       21     1     1     2   101   103  1.8493485163e-01 -6.1335173323e+00 -4.6315012792e+00  7.6879802201e+00  0.0000000000e+00 0. 9.
#pdf    2   21  8.470558e-02  7.519630e-02  6.138929e+00  6.204767e-01  1.528591e+00
</event>
<event>
     4  9999  1.000000e+00  5.013154e+00  7.570463e-03  2.408063e-01
       -2    -1     0     0     0   101  0.0000000000e+00  0.0000000000e+00  2.3311226860e+00  2.3311226860e+00  0.0000000000e+00 0. 9.
        2    -1     0     0   101     0  0.0000000000e+00  0.0000000000e+00 -2.3550584218e+01  2.3550584218e+01  0.0000000000e+00 0. 9.
       -2     1     1     2     0   102 -4.8986335655e+00  1.0417526449e+00 -1.0900983628e+00  5.1360562519e+00  3.3000000000e-01 0. 9.
        2     1     1     2   102     0  4.8986335655e+00 -1.0417526449e+00 -2.0129363169e+01  2.0745650652e+01  3.3000000000e-01 0. 9.
#pdf   -2    2  2.331123e-02  2.355058e-01  5.013154e+00  2.418176e-01  5.639516e-01
</event>
<event>
     4  9999  1.000000e+00  8.140502e+00  7.609561e-03  2.107816e-01
        1    -1     0     0   101     0  0.0000000000e+00  0.0000000000e+00  9.9248240136e+00  9.9248240136e+00  0.0000000000e+00 0. 9.
       -2    -1     0     0     0   101  0.0000000000e+00  0.0000000000e+00 -1.4537594399e+01  1.4537594399e+01  0.0000000000e+00 0. 9.
        1     1     1     2   102     0 -6.2453515085e+00  5.2166399719e+00  6.6841935882e+00  1.0535895405e+01  3.3000000000e-01 0. 9.
       -2     1     1     2     0   102  6.2453515085e+00 -5.2166399719e+00 -1.1296963973e+01  1.3926523008e+01  3.3000000000e-01 0. 9.
#pdf    1   -2  9.924824e-02  1.453759e-01  8.140502e+00  3.930978e-01  4.656003e-02
</event>
<event>
     4  9999  1.000000e+00  5.815101e+00  7.582388e-03  2.307453e-01
       21    -1     0     0   102   101  0.0000000000e+00  0.0000000000e+00  1.0234359598e+01  1.0234359598e+01  0.0000000000e+00 0. 9.
       21    -1     0     0   104   103  0.0000000000e+00  0.0000000000e+00 -1.4322827125e+01  1.4322827125e+01  0.0000000000e+00 0. 9.
       21     1     1     2   104   101  4.6518036795e-01 -5.7964647161e+00  8.7253734104e+00  1.0485587114e+01  0.0000000000e+00 0. 9.
       21     1     1     2   102   103 -4.6518036795e-01  5.7964647161e+00 -1.2813840937e+01  1.4071599608e+01  0.0000000000e+00 0. 9.
#pdf   21   21  1.023436e-01  1.432283e-01  5.815101e+00  1.135827e+00  7.892000e-01
</event>
<event>
     4  9999  1.000000e+00  9.225834e+00  7.619721e-03  2.042083e-01
       -1    -1     0     0     0   101  0.0000000000e+00  0.0000000000e+00  2.2541592815e+01  2.2541592815e+01  0.0000000000e+00 0. 9.
       21    -1     0     0   103   102  0.0000000000e+00  0.0000000000e+00 -8.8674192391e+00  8.8674192391e+00  0.0000000000e+00 0. 9.
       -1     1     1     2     0   102  8.8636696649e+00  2.5550310816e+00  1.8736400147e+01  2.0886704245e+01  3.3000000000e-01 0. 9.
       21     1     1     2   103   101 -8.8636696649e+00 -2.5550310816e+00 -5.0622265716e+00  1.0522307809e+01  0.0000000000e+00 0. 9.
#pdf   -1   21  2.254159e-01  8.867419e-02  9.225834e+00  3.346373e-02  1.265914e+00
</event>
<event>
     4  9999  1.000000e+00  5.400237e+00  7.576435e-03  2.356562e-01
       21    -1     0     0   102   103  0.0000000000e+00  0.0000000000e+00  3.8104905458e+01  3.8104905458e+01  0.0000000000e+00 0. 9.
        1    -1     0     0   101     0  0.0000000000e+00  0.0000000000e+00 -1.0529649371e+00  1.0529649371e+00  0.0000000000e+00 0. 9.
       21     1     1     2   101   103 -5.3801977637e+00  4.2008008508e-01  8.2872183293e+00  9.8894379462e+00  0.0000000000e+00 0. 9.
        1     1     1     2   102     0  5.3801977637e+00 -4.2008008508e-01  2.8764722192e+01  2.9268432449e+01  3.3000000000e-01 0. 9.
#pdf   21    1  3.810491e-01  1.052965e-02  5.400237e+00  1.939972e-01  4.848780e-01
</event>
<event>
     4  9999  1.000000e+00  5.342995e+00  7.575579e-03  2.363805e-01
       21    -1     0     0   102   101  0.0000000000e+00  0.0000000000e+00  9.7889301347e-01  9.7889301347e-01  0.0000000000e+00 0. 9.
       21    -1     0     0   103   102  0.0000000000e+00  0.0000000000e+00 -3.6706715964e+01  3.6706715964e+01  0.0000000000e+00 0. 9.
       21     1     1     2   104   101  5.2661512849e+00  9.0290967562e-01 -9.3218759385e+00  1.0744531923e+01  0.0000000000e+00 0. 9.
       21     1     1     2   103   104 -5.2661512849e+00 -9.0290967562e-01 -2.6405947012e+01  2.6941077054e+01  0.0000000000e+00 0. 9.
#pdf   21   21  9.788930e-03  3.670672e-01  5.342995e+00  6.041560e+00  2.146839e-01
</event>
<event>
     4  9999  1.000000e+00  5.028500e+00  7.570708e-03  2.405902e-01
       21    -1     0     0   102   101  0.0000000000e+00  0.0000000000e+00  1.5087148201e+01  1.5087148201e+01  0.0000000000e+00 0. 9.
       21    -1     0     0   104   103  0.0000000000e+00  0.0000000000e+00 -2.6458493861e+00  2.6458493861e+00  0.0000000000e+00 0. 9.
       21     1     1     2   104   101 -4.6762014932e+00 -1.8490408349e+00  8.5248970486e-01  5.1002501028e+00  0.0000000000e+00 0. 9.
       21     1     1     2   102   103  4.6762014932e+00  1.8490408349e+00  1.1588809110e+01  1.2632747484e+01  0.0000000000e+00 0. 9.
#pdf   21   21  1.508715e-01  2.645849e-02  5.028500e+00  7.597974e-01  3.385408e+00
</event>
<event>
     4  9999  1.000000e+00  5.862756e+00  7.583045e-03  2.302163e-01
        2    -1     0     0   101     0  0.0000000000e+00  0.0000000000e+00  4.4167282051e+01  4.4167282051e+01  0.0000000000e+00 0. 9.
       21    -1     0     0   102   101  0.0000000000e+00  0.0000000000e+00 -2.5539372763e+00  2.5539372763e+00  0.0000000000e+00 0. 9.
        2     1     1     2   103     0  5.3216462899e+00  2.4567050099e+00  4.0285956230e+01  4.0711454016e+01  3.3000000000e-01 0. 9.
       21     1     1     2   102   103 -5.3216462899e+00 -2.4567050099e+00  1.3273885440e+00  6.0097653104e+00  0.0000000000e+00 0. 9.
#pdf    2   21  4.416728e-01  2.553937e-02  5.862756e+00  2.753575e-01  3.523206e+00
</event>
<event>
     4  9999  1.000000e+00  6.410690e+00  7.590245e-03  2.245797e-01
       21    -1     0     0   102   103  0.0000000000e+00  0.0000000000e+00  2.1585508388e+01  2.1585508388e+01  0.0000000000e+00 0. 9.
        2    -1     0     0   101     0  0.0000000000e+00  0.0000000000e+00 -4.0408002853e+00  4.0408002853e+00  0.0000000000e+00 0. 9.
       21     1     1     2   101   103  5.0020778519e+00  4.0063086676e+00  1.8084501634e+01  1.9186466359e+01  0.0000000000e+00 0. 9.
        2     1     1     2   102     0 -5.0020778519e+00 -4.0063086676e+00 -5.3979353179e-01  6.4398423144e+00  3.3000000000e-01 0. 9.
#pdf   21    2  2.158551e-01  4.040800e-02  6.410690e+00  4.733088e-01  5.816430e-01
</event>
<event>
     4  9999  1.000000e+00  5.736469e+00  7.581292e-03  2.316332e-01
        2    -1     0     0   101     0  0.0000000000e+00  0.0000000000e+00  2.1333885921e+01  2.1333885921e+01  0.0000000000e+00 0. 9.
       21    -1     0     0   102   103  0.0000000000e+00  0.0000000000e+00 -3.2923465820e+00  3.2923465820e+00  0.0000000000e+00 0. 9.
        2     1     1     2   102     0  5.7257933979e+00  3.1121998855e-01  1.7997508985e+01  1.8891818271e+01  3.3000000000e-01 0. 9.
       21     1     1     2   101   103 -5.7257933979e+00 -3.1121998855e-01  4.4030354321e-02  5.7344142324e+00  0.0000000000e+00 0. 9.
#pdf    2   21  2.133389e-01  3.292347e-02  5.736469e+00  5.780956e-01  2.964442e+00
</event>
<event>
     4  9999  1.000000e+00  7.764560e+00  7.605730e-03  2.133764e-01
       21    -1     0     0   101   102  0.0000000000e+00  0.0000000000e+00  2.7658514273e+00  2.7658514273e+00  0.0000000000e+00 0. 9.
       21    -1     0     0   102   103  0.0000000000e+00  0.0000000000e+00 -2.3848814429e+01  2.3848814429e+01  0.0000000000e+00 0. 9.
       21     1     1     2   101   104  7.6956639699e+00  1.0320608968e+00 -6.6386174831e+00  1.0215656402e+01  0.0000000000e+00 0. 9.
       21     1     1     2   104   103 -7.6956639699e+00 -1.0320608968e+00 -1.4444345519e+01  1.6399009455e+01  0.0000000000e+00 0. 9.
#pdf   21   21  2.765851e-02  2.384881e-01  7.764560e+00  3.416665e+00  3.940049e-01
</event>
<event>
     4  9999  1.000000e+00  5.891597e+00  7.583440e-03  2.298994e-01
       21    -1     0     0   102   101  0.0000000000e+00  0.0000000000e+00  9.7265747230e+00  9.7265747230e+00  0.0000000000e+00 0. 9.
       21    -1     0     0   103   102  0.0000000000e+00  0.0000000000e+00 -1.7353891257e+01  1.7353891257e+01  0.0000000000e+00 0. 9.
       21     1     1     2   104   101 -3.4438016127e+00  4.7802870052e+00  8.2543224548e+00  1.0141240190e+01  0.0000000000e+00 0. 9.
       21     1     1     2   103   104  3.4438016127e+00 -4.7802870052e+00 -1.5881638989e+01  1.6939225790e+01  0.0000000000e+00 0. 9.
#pdf   21   21  9.726575e-02  1.735389e-01  5.891597e+00  1.194970e+00  6.312008e-01
</event>
<event>
     4  9999  1.000000e+00  5.712893e+00  7.580961e-03  2.319031e-01
       21    -1     0     0   101   102  0.0000000000e+00  0.0000000000e+00  2.8608551602e+00  2.8608551602e+00  0.0000000000e+00 0. 9.
       21    -1     0     0   103   104  0.0000000000e+00  0.0000000000e+00 -1.2882537785e+01  1.2882537785e+01  0.0000000000e+00 0. 9.
       21     1     1     2   101   104  5.7052642079e+00 -2.9513962570e-01 -2.3478530445e+00  6.1765330890e+00  0.0000000000e+00 0. 9.
       21     1     1     2   103   102 -5.7052642079e+00  2.9513962570e-01 -7.6738295799e+00  9.5668598559e+00  0.0000000000e+00 0. 9.
#pdf   21   21  2.860855e-02  1.288254e-01  5.712893e+00  3.261454e+00  8.904443e-01
</event>
<event>
     4  9999  1.000000e+00  6.702862e+00  7.593841e-03  2.218700e-01
        2    -1     0     0   101     0  0.0000000000e+00  0.0000000000e+00  1.2232721565e+01  1.2232721565e+01  0.0000000000e+00 0. 9.
       -3    -1     0     0     0   101  0.0000000000e+00  0.0000000000e+00 -8.8865104483e+00  8.8865104483e+00  0.0000000000e+00 0. 9.
        2     1     1     2   102     0 -6.3495046830e+00  2.1302538120e+00  9.7541592836e+00  1.1836668212e+01  3.3000000000e-01 0. 9.
       -3     1     1     2     0   102  6.3495046830e+00 -2.1302538120e+00 -6.4079481669e+00  9.2825638017e+00  5.0000000000e-01 0. 9.
#pdf    2   -3  1.223272e-01  8.886510e-02  6.702862e+00  6.260845e-01  4.114390e-02
</event>
<event>
     4  9999  1.000000e+00  5.013329e+00  7.570466e-03  2.408038e-01
       -1    -1     0     0     0   101  0.0000000000e+00  0.0000000000e+00  2.0596415245e+00  2.0596415245e+00  0.0000000000e+00 0. 9.
       21    -1     0     0   101   102  0.0000000000e+00  0.0000000000e+00 -1.4241557250e+01  1.4241557250e+01  0.0000000000e+00 0. 9.
       -1     1     1     2     0   103  4.2323946933e+00 -2.6783710441e+00 -3.0156492105e+00  5.8557558393e+00  3.3000000000e-01 0. 9.
       21     1     1     2   103   102 -4.2323946933e+00  2.6783710441e+00 -9.1662665154e+00  1.0445442936e+01  0.0000000000e+00 0. 9.
#pdf   -1   21  2.059642e-02  1.424156e-01  5.013329e+00  2.870577e-01  8.102935e-01
</event>
<event>
     4  9999  1.000000e+00  5.313264e+00  7.575131e-03  2.367615e-01
       21    -1     0     0   102   103  0.0000000000e+00  0.0000000000e+00  1.8640111659e+00  1.8640111659e+00  0.0000000000e+00 0. 9.
        2    -1     0     0   101     0  0.0000000000e+00  0.0000000000e+00 -4.0065098082e+01  4.0065098082e+01  0.0000000000e+00 0. 9.
       21     1     1     2   101   103 -1.4816956842e+00 -5.1004678983e+00 -2.5656855827e+00  5.8985538390e+00  0.0000000000e+00 0. 9.
        2     1     1     2   102     0  1.4816956842e+00  5.1004678983e+00 -3.5635401333e+01  3.6030555409e+01  3.3000000000e-01 0. 9.
#pdf   21    2  1.864011e-02  4.006510e-01  5.313264e+00  4.229115e+00  3.385322e-01
</event>
<event>
     4  9999  1.000000e+00  6.996758e+00  7.597307e-03  2.193221e-01
        2    -1     0     0   101     0  0.0000000000e+00  0.0000000000e+00  2.2259773252e+00  2.2259773252e+00  0.0000000000e+00 0. 9.
        2    -1     0     0   102     0  0.0000000000e+00  0.0000000000e+00 -3.7453284993e+01  3.7453284993e+01  0.0000000000e+00 0. 9.
        2     1     1     2   101     0 -6.0295163782e+00 -3.5405668127e+00 -3.0352254151e+01  3.1148979327e+01  3.3000000000e-01 0. 9.
        2     1     1     2   102     0  6.0295163782e+00  3.5405668127e+00 -4.8750535175e+00  8.5302829911e+00  3.3000000000e-01 0. 9.
#pdf    2    2  2.225977e-02  3.745328e-01  6.996758e+00  5.661589e-01  3.549685e-01
</event>
<event>
     4  9999  1.000000e+00  5.574425e+00  7.578987e-03  2.335244e-01
       21    -1     0     0   102   103  0.0000000000e+00  0.0000000000e+00  1.5317524630e+00  1.5317524630e+00  0.0000000000e+00 0. 9.
        1    -1     0     0   101     0  0.0000000000e+00  0.0000000000e+00 -2.9080424663e+01  2.9080424663e+01  0.0000000000e+00 0. 9.
       21     1     1     2   101   103  5.5702311902e+00  9.3640649820e-02 -5.3542027234e+00  7.7268189372e+00  0.0000000000e+00 0. 9.
        1     1     1     2   102     0 -5.5702311902e+00 -9.3640649820e-02 -2.2194469476e+01  2.2885358189e+01  3.3000000000e-01 0. 9.
#pdf   21    1  1.531752e-02  2.908042e-01  5.574425e+00  4.777245e+00  2.166481e-01
</event>
<event>
     4  9999  1.000000e+00  5.507356e+00  7.578014e-03  2.343327e-01
        2    -1     0     0   101     0  0.0000000000e+00  0.0000000000e+00  1.4266579890e+01  1.4266579890e+01  0.0000000000e+00 0. 9.
       21    -1     0     0   102   101  0.0000000000e+00  0.0000000000e+00 -2.2026764903e+00  2.2026764903e+00  0.0000000000e+00 0. 9.
        2     1     1     2   103     0 -1.3374103094e+00 -5.3375809749e+00  7.5720757758e+00  9.3660914235e+00  3.3000000000e-01 0. 9.
       21     1     1     2   102   103  1.3374103094e+00  5.3375809749e+00  4.4918276237e+00  7.1031649566e+00  0.0000000000e+00 0. 9.
#pdf    2   21  1.426658e-01  2.202676e-02  5.507356e+00  6.267828e-01  3.843772e+00
</event>
<event>
     4  9999  1.000000e+00  7.854262e+00  7.606661e-03  2.127402e-01
        2    -1     0     0   101     0  0.0000000000e+00  0.0000000000e+00  1.8769640072e+01  1.8769640072e+01  0.0000000000e+00 0. 9.
       21    -1     0     0   102   101  0.0000000000e+00  0.0000000000e+00 -3.8759844996e+00  3.8759844996e+00  0.0000000000e+00 0. 9.
        2     1     1     2   103     0  1.3265265372e+00  7.7384496235e+00  1.1863059782e+01  1.4229700019e+01  3.3000000000e-01 0. 9.
       21     1     1     2   102   103 -1.3265265372e+00 -7.7384496235e+00  3.0305957897e+00  8.4159245523e+00  0.0000000000e+00 0. 9.
#pdf    2   21  1.876964e-01  3.875984e-02  7.854262e+00  5.851890e-01  2.668324e+00
</event>
<event>
     4  9999  1.000000e+00  5.515783e+00  7.578137e-03  2.342303e-01
       -3    -1     0     0     0   101  0.0000000000e+00  0.0000000000e+00  7.0703780563e+00  7.0703780563e+00  0.0000000000e+00 0. 9.
       -1    -1     0     0     0   102  0.0000000000e+00  0.0000000000e+00 -4.3419001530e+00  4.3419001530e+00  0.0000000000e+00 0. 9.
       -3     1     1     2     0   102 -4.4934869645e+00  3.1709052503e+00  1.9043008170e+00  5.8414404737e+00  5.0000000000e-01 0. 9.
       -1     1     1     2     0   101  4.4934869645e+00 -3.1709052503e+00  8.2417708628e-01  5.5708377356e+00  3.3000000000e-01 0. 9.
#pdf   -3   -1  7.070378e-02  4.341900e-02  5.515783e+00  4.905386e-02  2.015099e-01
</event>
<event>
     4  9999  1.000000e+00  5.384423e+00  7.576200e-03  2.358551e-01
       21    -1     0     0   101   102  0.0000000000e+00  0.0000000000e+00  3.2905013103e+01  3.2905013103e+01  0.0000000000e+00 0. 9.
       21    -1     0     0   103   104  0.0000000000e+00  0.0000000000e+00 -3.4620111320e+00  3.4620111320e+00  0.0000000000e+00 0. 9.
       21     1     1     2   101   104  1.8396667995e+00 -5.0603984212e+00 -9.7856950239e-01  5.4726231722e+00  0.0000000000e+00 0. 9.
       21     1     1     2   103   102 -1.8396667995e+00  5.0603984212e+00  3.0421571473e+01  3.0894401063e+01  0.0000000000e+00 0. 9.
#pdf   21   21  3.290501e-01  3.462011e-02  5.384423e+00  2.695787e-01  2.850492e+00
</event>
<event>
     4  9999  1.000000e+00  5.640594e+00  7.579936e-03  2.327419e-01
       21    -1     0     0   102   101  0.0000000000e+00  0.0000000000e+00  6.9840351780e+00  6.9840351780e+00  0.0000000000e+00 0. 9.
       21    -1     0     0   104   103  0.0000000000e+00  0.0000000000e+00 -9.5322937418e+00  9.5322937418e+00  0.0000000000e+00 0. 9.
       21     1     1     2   104   101 -4.7576875364e+00  3.0299686676e+00 -7.2411334061e+00  9.1787969705e+00  0.0000000000e+00 0. 9.
       21     1     1     2   102   103  4.7576875364e+00 -3.0299686676e+00  4.6928748423e+00  7.3375319493e+00  0.0000000000e+00 0. 9.
#pdf   21   21  6.984035e-02  9.532294e-02  5.640594e+00  1.640507e+00  1.223694e+00
</event>
<event>
     4  9999  1.000000e+00  5.680208e+00  7.580499e-03  2.322802e-01
        2    -1     0     0   101     0  0.0000000000e+00  0.0000000000e+00  2.9363799047e+01  2.9363799047e+01  0.0000000000e+00 0. 9.
       -1    -1     0     0     0   101  0.0000000000e+00  0.0000000000e+00 -5.9821331115e+00  5.9821331115e+00  0.0000000000e+00 0. 9.
        2     1     1     2   102     0  8.5474006386e-01 -5.6137493214e+00  2.7653490225e+01  2.8232413706e+01  3.3000000000e-01 0. 9.
       -1     1     1     2     0   102 -8.5474006386e-01  5.6137493214e+00 -4.2718242895e+00  7.1135184530e+00  3.3000000000e-01 0. 9.
#pdf    2   -1  2.936380e-01  5.982133e-02  5.680208e+00  4.838224e-01  1.649343e-01
</event>
<event>
     4  9999  1.000000e+00  6.822670e+00  7.595272e-03  2.208110e-01
       21    -1     0     0   102   101  0.0000000000e+00  0.0000000000e+00  1.6108398349e+00  1.6108398349e+00  0.0000000000e+00 0. 9.
        1    -1     0     0   101     0  0.0000000000e+00  0.0000000000e+00 -2.8940658827e+01  2.8940658827e+01  0.0000000000e+00 0. 9.
       21     1     1     2   102   103 -6.5379893963e+00  1.9362764486e+00 -1.3065589774e+01  1.4737846111e+01  0.0000000000e+00 0. 9.
        1     1     1     2   103     0  6.5379893963e+00 -1.9362764486e+00 -1.4264229218e+01  1.5813652551e+01  3.3000000000e-01 0. 9.
#pdf   21    1  1.610840e-02  2.894066e-01  6.822670e+00  4.786140e+00  2.102686e-01
</event>
<event>
     4  9999  1.000000e+00  6.240107e+00  7.588070e-03  2.262518e-01
        1    -1     0     0   101     0  0.0000000000e+00  0.0000000000e+00  5.7016744026e+00  5.7016744026e+00  0.0000000000e+00 0. 9.
       21    -1     0     0   102   101  0.0000000000e+00  0.0000000000e+00 -1.9829335403e+01  1.9829335403e+01  0.0000000000e+00 0. 9.
        1     1     1     2   103     0 -4.5356258495e+00  4.2834895874e+00  3.2680330727e+00  7.0504698465e+00  3.3000000000e-01 0. 9.
       21     1     1     2   102   103  4.5356258495e+00 -4.2834895874e+00 -1.7395694073e+01  1.8480539959e+01  0.0000000000e+00 0. 9.
#pdf    1   21  5.701674e-02  1.982934e-01  6.240107e+00  4.202089e-01  5.304877e-01
</event>
<event>
     4  9999  1.000000e+00  6.050668e+00  7.585586e-03  2.281939e-01
       21    -1     0     0   102   101  0.0000000000e+00  0.0000000000e+00  1.7980158464e+01  1.7980158464e+01  0.0000000000e+00 0. 9.
       21    -1     0     0   101   103  0.0000000000e+00  0.0000000000e+00 -9.1994136920e+00  9.1994136920e+00  0.0000000000e+00 0. 9.
       21     1     1     2   104   103  2.4226751521e+00 -5.5444778090e+00 -7.6015146037e+00  9.7156375672e+00  0.0000000000e+00 0. 9.
       21     1     1     2   102   104 -2.4226751521e+00  5.5444778090e+00  1.6382259376e+01  1.7463934589e+01  0.0000000000e+00 0. 9.
#pdf   21   21  1.798016e-01  9.199414e-02  6.050668e+00  6.020121e-01  1.260857e+00
</event>
<event>
     4  9999  1.000000e+00  8.130728e+00  7.609464e-03  2.108468e-01
        3    -1     0     0   101     0  0.0000000000e+00  0.0000000000e+00  1.4964979145e+01  1.4964979145e+01  0.0000000000e+00 0. 9.
        2    -1     0     0   102     0  0.0000000000e+00  0.0000000000e+00 -1.3309581236e+01  1.3309581236e+01  0.0000000000e+00 0. 9.
        3     1     1     2   102     0  4.4103777164e-01 -8.1150890519e+00  1.2378008516e+01  1.4816014291e+01  5.0000000000e-01 0. 9.
        2     1     1     2   101     0 -4.4103777164e-01  8.1150890519e+00 -1.0722610607e+01  1.3458546091e+01  3.3000000000e-01 0. 9.
#pdf    3    2  1.496498e-01  1.330958e-01  8.130728e+00  2.368480e-02  6.187920e-01
</event>
<event>
     4  9999  1.000000e+00  7.897979e+00  7.607110e-03  2.124341e-01
       21    -1     0     0   102   103  0.0000000000e+00  0.0000000000e+00  4.8780471925e+01  4.8780471925e+01  0.0000000000e+00 0. 9.
        3    -1     0     0   101     0  0.0000000000e+00  0.0000000000e+00 -3.0451576541e+00  3.0451576541e+00  0.0000000000e+00 0. 9.
       21     1     1     2   101   103  5.2855965426e+00 -5.8641339750e+00  4.2585545727e+01  4.3311133707e+01  0.0000000000e+00 0. 9.
        3     1     1     2   102     0 -5.2855965426e+00  5.8641339750e+00  3.1497685444e+00  8.5144958730e+00  5.0000000000e-01 0. 9.
#pdf   21    3  4.878047e-01  3.045158e-02  7.897979e+00  5.606834e-02  1.050905e-01
</event>
<event>
     4  9999  1.000000e+00  8.220721e+00  7.610356e-03  2.102514e-01
        2    -1     0     0   101     0  0.0000000000e+00  0.0000000000e+00  4.0531460510e+01  4.0531460510e+01  0.0000000000e+00 0. 9.
       21    -1     0     0   102   103  0.0000000000e+00  0.0000000000e+00 -9.9041747926e+00  9.9041747926e+00  0.0000000000e+00 0. 9.
        2     1     1     2   102     0  4.1815971402e+00 -7.0770991041e+00  3.8310492493e+01  3.9183846435e+01  3.3000000000e-01 0. 9.
       21     1     1     2   101   103 -4.1815971402e+00  7.0770991041e+00 -7.6832067755e+00  1.1251788868e+01  0.0000000000e+00 0. 9.
#pdf    2   21  4.053146e-01  9.904175e-02  8.220721e+00  3.015110e-01  1.138799e+00
</event>
<event>
     4  9999  1.000000e+00  9.250736e+00  7.619940e-03  2.040713e-01
       21    -1     0     0   101   102  0.0000000000e+00  0.0000000000e+00  3.3837298374e+00  3.3837298374e+00  0.0000000000e+00 0. 9.
       21    -1     0     0   103   101  0.0000000000e+00  0.0000000000e+00 -3.7835414004e+01  3.7835414004e+01  0.0000000000e+00 0. 9.
       21     1     1     2   103   104  9.2005539594e+00  9.6224580649e-01 -2.9093202421e+01  3.0528520063e+01  0.0000000000e+00 0. 9.
       21     1     1     2   104   102 -9.2005539594e+00 -9.6224580649e-01 -5.3584817461e+00  1.0690623779e+01  0.0000000000e+00 0. 9.
#pdf   21   21  3.383730e-02  3.783541e-01  9.250736e+00  2.973032e+00  1.474814e-01
</event>
<event>
     4  9999  1.000000e+00  5.085798e+00  7.571617e-03  2.397926e-01
        1    -1     0     0   101     0  0.0000000000e+00  0.0000000000e+00  7.6285562176e+00  7.6285562176e+00  0.0000000000e+00 0. 9.
        2    -1     0     0   102     0  0.0000000000e+00  0.0000000000e+00 -3.4194809221e+00  3.4194809221e+00  0.0000000000e+00 0. 9.
        1     1     1     2   102     0 -4.9862547142e+00  9.4584382931e-01  2.6111987030e+00  5.7170460284e+00  3.3000000000e-01 0. 9.
        2     1     1     2   101     0  4.9862547142e+00 -9.4584382931e-01  1.5978765925e+00  5.3309911113e+00  3.3000000000e-01 0. 9.
#pdf    1    2  7.628556e-02  3.419481e-02  5.085798e+00  4.107107e-01  5.645800e-01
</event>
<event>
     4  9999  1.000000e+00  7.977047e+00  7.607917e-03  2.118870e-01
        1    -1     0     0   101     0  0.0000000000e+00  0.0000000000e+00  8.8845998375e+00  8.8845998375e+00  0.0000000000e+00 0. 9.
        2    -1     0     0   102     0  0.0000000000e+00  0.0000000000e+00 -7.2518710801e+00  7.2518710801e+00  0.0000000000e+00 0. 9.
        1     1     1     2   102     0 -2.2147124455e+00 -7.6564204550e+00 -8.0058586785e-02  7.9775331260e+00  3.3000000000e-01 0. 9.
        2     1     1     2   101     0  2.2147124455e+00  7.6564204550e+00  1.7127873442e+00  8.1589377915e+00  3.3000000000e-01 0. 9.
#pdf    1    2  8.884600e-02  7.251871e-02  7.977047e+00  4.009748e-01  6.148503e-01
</event>
<event>
     4  9999  1.000000e+00  5.186049e+00  7.573184e-03  2.384308e-01
       21    -1     0     0   102   103  0.0000000000e+00  0.0000000000e+00  3.8979669186e+00  3.8979669186e+00  0.0000000000e+00 0. 9.
        1    -1     0     0   101     0  0.0000000000e+00  0.0000000000e+00 -1.2007668163e+01  1.2007668163e+01  0.0000000000e+00 0. 9.
       21     1     1     2   101   103  3.2635720171e+00  4.0265279581e+00  1.1314453158e+00  5.3050917250e+00  0.0000000000e+00 0. 9.
        1     1     1     2   102     0 -3.2635720171e+00 -4.0265279581e+00 -9.2411465603e+00  1.0600543357e+01  3.3000000000e-01 0. 9.
#pdf   21    1  3.897967e-02  1.200767e-01  5.186049e+00  2.613353e+00  3.852297e-01
</event>
<event>
     4  9999  1.000000e+00  5.726288e+00  7.581150e-03  2.317495e-01
       21    -1     0     0   102   101  0.0000000000e+00  0.0000000000e+00  2.3555987781e+01  2.3555987781e+01  0.0000000000e+00 0. 9.
       21    -1     0     0   104   103  0.0000000000e+00  0.0000000000e+00 -2.0151958948e+00  2.0151958948e+00  0.0000000000e+00 0. 9.
       21     1     1     2   104   101 -3.8925990002e+00  4.1997672246e+00  1.7880370276e+01  1.8774930438e+01  0.0000000000e+00 0. 9.
       21     1     1     2   102   103  3.8925990002e+00 -4.1997672246e+00  3.6604216102e+00  6.7962532385e+00  0.0000000000e+00 0. 9.
#pdf   21   21  2.355599e-01  2.015196e-02  5.726288e+00  4.354672e-01  4.079511e+00
</event>
<event>
     4  9999  1.000000e+00  5.287690e+00  7.574743e-03  2.370920e-01
       -1    -1     0     0     0   101  0.0000000000e+00  0.0000000000e+00  1.3147280914e+01  1.3147280914e+01  0.0000000000e+00 0. 9.
       21    -1     0     0   101   102  0.0000000000e+00  0.0000000000e+00 -2.9966113958e+01  2.9966113958e+01  0.0000000000e+00 0. 9.
       -1     1     1     2     0   103  2.7819518926e+00 -4.4962813373e+00  1.2366265341e+01  1.3453223431e+01  3.3000000000e-01 0. 9.
       21     1     1     2   103   102 -2.7819518926e+00  4.4962813373e+00 -2.9185098385e+01  2.9660171442e+01  0.0000000000e+00 0. 9.
#pdf   -1   21  1.314728e-01  2.996611e-01  5.287690e+00  8.090971e-02  3.193168e-01
</event>
<event>
     4  9999  1.000000e+00  5.010291e+00  7.570417e-03  2.408467e-01
       21    -1     0     0   102   101  0.0000000000e+00  0.0000000000e+00  2.1664857714e+01  2.1664857714e+01  0.0000000000e+00 0. 9.
        1    -1     0     0   101     0  0.0000000000e+00  0.0000000000e+00 -2.5283437602e+00  2.5283437602e+00  0.0000000000e+00 0. 9.
       21     1     1     2   102   103 -3.0732921680e+00  3.9538515711e+00  1.8462345510e+01  1.9129460754e+01  0.0000000000e+00 0. 9.
        1     1     1     2   103     0  3.0732921680e+00 -3.9538515711e+00  6.7416844401e-01  5.0637407207e+00  3.3000000000e-01 0. 9.
#pdf   21    1  2.166486e-01  2.528344e-02  5.010291e+00  4.996658e-01  4.366659e-01
</event>
<event>
     4  9999  1.000000e+00  6.001578e+00  7.584930e-03  2.287127e-01
       21    -1     0     0   102   103  0.0000000000e+00  0.0000000000e+00  7.2328244533e+00  7.2328244533e+00  0.0000000000e+00 0. 9.
        2    -1     0     0   101     0  0.0000000000e+00  0.0000000000e+00 -2.5877155006e+01  2.5877155006e+01  0.0000000000e+00 0. 9.
       21     1     1     2   101   103  2.2837139382e+00 -5.5491537446e+00  5.5540141940e+00  8.1765231181e+00  0.0000000000e+00 0. 9.
        2     1     1     2   102     0 -2.2837139382e+00  5.5491537446e+00 -2.4198344747e+01  2.4933456341e+01  3.3000000000e-01 0. 9.
#pdf   21    2  7.232824e-02  2.587716e-01  6.001578e+00  1.585774e+00  5.248178e-01
</event>
<event>
     4  9999  1.000000e+00  5.696454e+00  7.580729e-03  2.320924e-01
        2    -1     0     0   101     0  0.0000000000e+00  0.0000000000e+00  3.5091845840e+00  3.5091845840e+00  0.0000000000e+00 0. 9.
       21    -1     0     0   102   103  0.0000000000e+00  0.0000000000e+00 -2.0746051808e+01  2.0746051808e+01  0.0000000000e+00 0. 9.
        2     1     1     2   102     0 -5.5301879311e+00  1.3573297896e+00  4.0393157749e-01  5.7181625921e+00  3.3000000000e-01 0. 9.
       21     1     1     2   101   103  5.5301879311e+00 -1.3573297896e+00 -1.7640798801e+01  1.8537073800e+01  0.0000000000e+00 0. 9.
#pdf    2   21  3.509185e-02  2.074605e-01  5.696454e+00  5.705506e-01  5.116414e-01
</event>
<event>
     4  9999  1.000000e+00  5.687255e+00  7.580599e-03  2.321986e-01
       21    -1     0     0   101   102  0.0000000000e+00  0.0000000000e+00  3.7492005176e+00  3.7492005176e+00  0.0000000000e+00 0. 9.
       -1    -1     0     0     0   101  0.0000000000e+00  0.0000000000e+00 -9.9315876177e+00  9.9315876177e+00  0.0000000000e+00 0. 9.
       21     1     1     2   103   102  5.6599872387e+00 -5.1199163996e-01 -6.1169556586e-01  5.7159218370e+00  0.0000000000e+00 0. 9.
       -1     1     1     2     0   103 -5.6599872387e+00  5.1199163996e-01 -5.5706915342e+00  7.9648662983e+00  3.3000000000e-01 0. 9.
#pdf   21   -1  3.749201e-02  9.931588e-02  5.687255e+00  2.702191e+00  1.091009e-01
</event>
<event>
     4  9999  1.000000e+00  6.092364e+00  7.586139e-03  2.277584e-01
       21    -1     0     0   101   102  0.0000000000e+00  0.0000000000e+00  3.0462223278e+00  3.0462223278e+00  0.0000000000e+00 0. 9.
       21    -1     0     0   102   103  0.0000000000e+00  0.0000000000e+00 -1.5689529505e+01  1.5689529505e+01  0.0000000000e+00 0. 9.
       21     1     1     2   101   104 -5.4026707258e+00 -2.8156794714e+00 -1.8939573258e+00  6.3799667874e+00  0.0000000000e+00 0. 9.
       21     1     1     2   104   103  5.4026707258e+00  2.8156794714e+00 -1.0749349851e+01  1.2355785045e+01  0.0000000000e+00 0. 9.
#pdf   21   21  3.046222e-02  1.568953e-01  6.092364e+00  3.141603e+00  7.061002e-01
</event>
<event>
     4  9999  1.000000e+00  8.381500e+00  7.611927e-03  2.092118e-01
       21    -1     0     0   102   101  0.0000000000e+00  0.0000000000e+00  1.7808482530e+01  1.7808482530e+01  0.0000000000e+00 0. 9.
        1    -1     0     0   101     0  0.0000000000e+00  0.0000000000e+00 -1.1818264291e+01  1.1818264291e+01  0.0000000000e+00 0. 9.
       21     1     1     2   102   103 -3.8812239036e+00 -7.4274811428e+00  1.5084155623e+01  1.7255814266e+01  0.0000000000e+00 0. 9.
        1     1     1     2   103     0  3.8812239036e+00  7.4274811428e+00 -9.0939373844e+00  1.2370932554e+01  3.3000000000e-01 0. 9.
#pdf   21    1  1.780848e-01  1.181826e-01  8.381500e+00  5.726799e-01  3.772411e-01
</event>
<event>
     4  9999  1.000000e+00  6.489463e+00  7.591230e-03  2.238306e-01
       21    -1     0     0   102   101  0.0000000000e+00  0.0000000000e+00  8.4244081179e+00  8.4244081179e+00  0.0000000000e+00 0. 9.
       21    -1     0     0   104   103  0.0000000000e+00  0.0000000000e+00 -8.4865266216e+00  8.4865266216e+00  0.0000000000e+00 0. 9.
       21     1     1     2   104   101 -4.4602368230e+00  4.7137471740e+00  5.3893867876e+00  8.4355565841e+00  0.0000000000e+00 0. 9.
       21     1     1     2   102   103  4.4602368230e+00 -4.7137471740e+00 -5.4515052912e+00  8.4753781554e+00  0.0000000000e+00 0. 9.
#pdf   21   21  8.424408e-02  8.486527e-02  6.489463e+00  1.368110e+00  1.358362e+00
</event>
<event>
     4  9999  1.000000e+00  6.195575e+00  7.587493e-03  2.267000e-01
       21    -1     0     0   101   102  0.0000000000e+00  0.0000000000e+00  7.5717207409e+00  7.5717207409e+00  0.0000000000e+00 0. 9.
       21    -1     0     0   103   104  0.0000000000e+00  0.0000000000e+00 -9.9742487009e+00  9.9742487009e+00  0.0000000000e+00 0. 9.
       21     1     1     2   101   104 -3.5993913303e+00 -5.0427705025e+00 -7.3532284844e+00  9.6153586222e+00  0.0000000000e+00 0. 9.
       21     1     1     2   103   102  3.5993913303e+00  5.0427705025e+00  4.9507005243e+00  7.9306108196e+00  0.0000000000e+00 0. 9.
#pdf   21   21  7.571721e-02  9.974249e-02  6.195575e+00  1.518168e+00  1.159842e+00
</event>
<event>
     4  9999  1.000000e+00  5.604508e+00  7.579420e-03  2.331669e-01
        2    -1     0     0   101     0  0.0000000000e+00  0.0000000000e+00  2.0551391537e+00  2.0551391537e+00  0.0000000000e+00 0. 9.
       21    -1     0     0   102   103  0.0000000000e+00  0.0000000000e+00 -1.6874483634e+01  1.6874483634e+01  0.0000000000e+00 0. 9.
        2     1     1     2   102     0  4.3027530982e+00 -3.5843449670e+00 -4.5118951502e+00  7.1991187595e+00  3.3000000000e-01 0. 9.
       21     1     1     2   101   103 -4.3027530982e+00  3.5843449670e+00 -1.0307449331e+01  1.1730504029e+01  0.0000000000e+00 0. 9.
#pdf    2   21  2.055139e-02  1.687448e-01  5.604508e+00  5.527132e-01  6.579888e-01
</event>
<event>
     4  9999  1.000000e+00  5.101599e+00  7.571866e-03  2.395752e-01
        2    -1     0     0   101     0  0.0000000000e+00  0.0000000000e+00  1.8176478910e+01  1.8176478910e+01  0.0000000000e+00 0. 9.
       21    -1     0     0   102   103  0.0000000000e+00  0.0000000000e+00 -1.3211799028e+01  1.3211799028e+01  0.0000000000e+00 0. 9.
        2     1     1     2   102     0  5.1010197778e+00  3.3312793398e-03  1.7300248207e+01  1.8039620336e+01  3.3000000000e-01 0. 9.
       21     1     1     2   101   103 -5.1010197778e+00 -3.3312793398e-03 -1.2335568324e+01  1.3348657601e+01  0.0000000000e+00 0. 9.
#pdf    2   21  1.817648e-01  1.321180e-01  5.101599e+00  6.105598e-01  8.779705e-01
</event>
<event>
     4  9999  1.000000e+00  5.913498e+00  7.583739e-03  2.296603e-01
       21    -1     0     0   101   102  0.0000000000e+00  0.0000000000e+00  9.0863668816e+00  9.0863668816e+00  0.0000000000e+00 0. 9.
       21    -1     0     0   102   103  0.0000000000e+00  0.0000000000e+00 -4.7520086673e+00  4.7520086673e+00  0.0000000000e+00 0. 9.
       21     1     1     2   101   104  5.3394466530e+00  2.5416071453e+00  5.1841246429e+00  7.8641341389e+00  0.0000000000e+00 0. 9.
       21     1     1     2   104   103 -5.3394466530e+00 -2.5416071453e+00 -8.4976642853e-01  5.9742414100e+00  0.0000000000e+00 0. 9.
#pdf   21   21  9.086367e-02  4.752009e-02  5.913498e+00  1.278537e+00  2.263028e+00
</event>
<event>
     4  9999  1.000000e+00  8.543896e+00  7.613484e-03  2.081919e-01
       -3    -1     0     0     0   101  0.0000000000e+00  0.0000000000e+00  6.5309722563e+00  6.5309722563e+00  0.0000000000e+00 0. 9.
        2    -1     0     0   101     0  0.0000000000e+00  0.0000000000e+00 -7.3626608383e+01  7.3626608383e+01  0.0000000000e+00 0. 9.
       -3     1     1     2     0   102  8.5248489978e+00 -5.4577375071e-01  3.3542973558e+00  9.1908775519e+00  5.0000000000e-01 0. 9.
        2     1     1     2   102     0 -8.5248489978e+00  5.4577375071e-01 -7.0449933482e+01  7.0966703087e+01  3.3000000000e-01 0. 9.
#pdf   -3    2  6.530972e-02  7.362661e-01  8.543896e+00  5.815365e-02  2.389638e-02
</event>
<event>
     4  9999  1.000000e+00  5.221353e+00  7.573729e-03  2.379611e-01
       21    -1     0     0   101   102  0.0000000000e+00  0.0000000000e+00  1.7447650499e+01  1.7447650499e+01  0.0000000000e+00 0. 9.
       21    -1     0     0   102   103  0.0000000000e+00  0.0000000000e+00 -6.5932610784e+00  6.5932610784e+00  0.0000000000e+00 0. 9.
       21     1     1     2   101   104 -4.2145458598e+00  3.0822283184e+00  1.5927120369e+01  1.6761136341e+01  0.0000000000e+00 0. 9.
       21     1     1     2   104   103  4.2145458598e+00 -3.0822283184e+00 -5.0727309483e+00  7.2797752359e+00  0.0000000000e+00 0. 9.
#pdf   21   21  1.744765e-01  6.593261e-02  5.221353e+00  6.408502e-01  1.728457e+00
</event>
<event>
     4  9999  1.000000e+00  6.935513e+00  7.596597e-03  2.198393e-01
       21    -1     0     0   102   101  0.0000000000e+00  0.0000000000e+00  2.1491354427e+00  2.1491354427e+00  0.0000000000e+00 0. 9.
       21    -1     0     0   104   103  0.0000000000e+00  0.0000000000e+00 -2.5948366704e+01  2.5948366704e+01  0.0000000000e+00 0. 9.
       21     1     1     2   104   101 -6.4370145141e-01  6.9055764623e+00 -1.7108119967e+01  1.8460474172e+01  0.0000000000e+00 0. 9.
       21     1     1     2   102   103  6.4370145141e-01 -6.9055764623e+00 -6.6911112938e+00  9.6370279745e+00  0.0000000000e+00 0. 9.
#pdf   21   21  2.149135e-02  2.594837e-01  6.935513e+00  4.008190e+00  3.609044e-01
</event>
<event>
     4  9999  1.000000e+00  6.398027e+00  7.590085e-03  2.247015e-01
        4    -1     0     0   101     0  0.0000000000e+00  0.0000000000e+00  5.0851025008e+00  5.0851025008e+00  0.0000000000e+00 0. 9.
       21    -1     0     0   102   101  0.0000000000e+00  0.0000000000e+00 -1.8455345860e+01  1.8455345860e+01  0.0000000000e+00 0. 9.
        4     1     1     2   103     0  5.5047258137e+00  3.1848864751e+00  2.0598211686e+00  6.8511583977e+00  1.5000000000e+00 0. 9.
       21     1     1     2   102   103 -5.5047258137e+00 -3.1848864751e+00 -1.5430064528e+01  1.6689289964e+01  0.0000000000e+00 0. 9.
#pdf    4   21  5.085103e-02  1.845535e-01  6.398027e+00  4.555039e-02  5.769017e-01
</event>
<event>
     4  9999  1.000000e+00  5.075579e+00  7.571456e-03  2.399338e-01
        2    -1     0     0   101     0  0.0000000000e+00  0.0000000000e+00  2.4716317672e+01  2.4716317672e+01  0.0000000000e+00 0. 9.
       21    -1     0     0   102   101  0.0000000000e+00  0.0000000000e+00 -4.9166350666e+00  4.9166350666e+00  0.0000000000e+00 0. 9.
        2     1     1     2   103     0  4.8976358543e+00  1.3278274807e+00  2.3051671168e+01  2.3605897704e+01  3.3000000000e-01 0. 9.
       21     1     1     2   102   103 -4.8976358543e+00 -1.3278274807e+00 -3.2519885625e+00  6.0270550346e+00  0.0000000000e+00 0. 9.
#pdf    2   21  2.471632e-01  4.916635e-02  5.075579e+00  5.502194e-01  2.195564e+00
</event>
<event>
     4  9999  1.000000e+00  8.892748e+00  7.616733e-03  2.060967e-01
       21    -1     0     0   103   102  0.0000000000e+00  0.0000000000e+00  1.2410867644e+01  1.2410867644e+01  0.0000000000e+00 0. 9.
       -3    -1     0     0     0   101  0.0000000000e+00  0.0000000000e+00 -1.0300781536e+01  1.0300781536e+01  0.0000000000e+00 0. 9.
       21     1     1     2   103   101 -4.3182119415e+00 -7.7689581643e+00  8.0643164933e+00  1.2001535978e+01  0.0000000000e+00 0. 9.
       -3     1     1     2     0   102  4.3182119415e+00  7.7689581643e+00 -5.9542303853e+00  1.0710113203e+01  5.0000000000e-01 0. 9.
#pdf   21   -3  1.241087e-01  1.030078e-01  8.892748e+00  8.788155e-01  3.694321e-02
</event>
<event>
     4  9999  1.000000e+00  5.449543e+00  7.577166e-03  2.350419e-01
        2    -1     0     0   101     0  0.0000000000e+00  0.0000000000e+00  1.9567245614e+01  1.9567245614e+01  0.0000000000e+00 0. 9.
       21    -1     0     0   102   103  0.0000000000e+00  0.0000000000e+00 -1.8415339291e+00  1.8415339291e+00  0.0000000000e+00 0. 9.
        2     1     1     2   102     0  2.1057056480e+00  5.0218188224e+00  1.3354881454e+01  1.4426171329e+01  3.3000000000e-01 0. 9.
       21     1     1     2   101   103 -2.1057056480e+00 -5.0218188224e+00  4.3708302301e+00  6.9826082134e+00  0.0000000000e+00 0. 9.
#pdf    2   21  1.956725e-01  1.841534e-02  5.449543e+00  5.967633e-01  4.277643e+00
</event>
<event>
     4  9999  1.000000e+00  5.237867e+00  7.573983e-03  2.377432e-01
        2    -1     0     0   101     0  0.0000000000e+00  0.0000000000e+00  1.3474465074e+00  1.3474465074e+00  0.0000000000e+00 0. 9.
       21    -1     0     0   102   101  0.0000000000e+00  0.0000000000e+00 -3.6560606285e+01  3.6560606285e+01  0.0000000000e+00 0. 9.
        2     1     1     2   103     0  1.6266382243e+00 -4.9758397536e+00 -5.0065147719e+00  7.2511394503e+00  3.3000000000e-01 0. 9.
       21     1     1     2   102   103 -1.6266382243e+00  4.9758397536e+00 -3.0206645006e+01  3.0656913342e+01  0.0000000000e+00 0. 9.
#pdf    2   21  1.347447e-02  3.656061e-01  5.237867e+00  5.474785e-01  2.192174e-01
</event>
<event>
     4  9999  1.000000e+00  6.737232e+00  7.594254e-03  2.215633e-01
       21    -1     0     0   102   103  0.0000000000e+00  0.0000000000e+00  2.8295702142e+01  2.8295702142e+01  0.0000000000e+00 0. 9.
        3    -1     0     0   101     0  0.0000000000e+00  0.0000000000e+00 -1.9263753730e+00  1.9263753730e+00  0.0000000000e+00 0. 9.
       21     1     1     2   101   103 -5.7212770348e+00  3.5430562206e+00  6.9963264290e+00  9.7074632007e+00  0.0000000000e+00 0. 9.
        3     1     1     2   102     0  5.7212770348e+00 -3.5430562206e+00  1.9373000340e+01  2.0514614315e+01  5.0000000000e-01 0. 9.
#pdf   21    3  2.829570e-01  1.926375e-02  6.737232e+00  3.192476e-01  1.338975e-01
</event>
<event>
     4  9999  1.000000e+00  5.550323e+00  7.578639e-03  2.338131e-01
       21    -1     0     0   102   101  0.0000000000e+00  0.0000000000e+00  2.2070302104e+01  2.2070302104e+01  0.0000000000e+00 0. 9.
       21    -1     0     0   101   103  0.0000000000e+00  0.0000000000e+00 -1.5280094015e+00  1.5280094015e+00  0.0000000000e+00 0. 9.
       21     1     1     2   104   103  1.1048121322e+00  5.4392527418e+00  6.8006399347e+00  8.7780854267e+00  0.0000000000e+00 0. 9.
       21     1     1     2   102   104 -1.1048121322e+00 -5.4392527418e+00  1.3741652768e+01  1.4820226079e+01  0.0000000000e+00 0. 9.
#pdf   21   21  2.207030e-01  1.528009e-02  5.550323e+00  4.766174e-01  4.780494e+00
</event>
<event>
     4  9999  1.000000e+00  7.574261e+00  7.603721e-03  2.147639e-01
       21    -1     0     0   101   102  0.0000000000e+00  0.0000000000e+00  9.4803078069e+00  9.4803078069e+00  0.0000000000e+00 0. 9.
       21    -1     0     0   103   104  0.0000000000e+00  0.0000000000e+00 -8.4990095106e+00  8.4990095106e+00  0.0000000000e+00 0. 9.
       21     1     1     2   101   104 -4.5324491025e+00  6.0684704363e+00  5.3148720069e+00  9.2529612964e+00  0.0000000000e+00 0. 9.
       21     1     1     2   103   102  4.5324491025e+00 -6.0684704363e+00 -4.3335737106e+00  8.7263560212e+00  0.0000000000e+00 0. 9.
#pdf   21   21  9.480308e-02  8.499010e-02  7.574261e+00  1.201012e+00  1.341865e+00
</event>
<event>
     4  9999  1.000000e+00  5.137715e+00  7.572433e-03  2.390821e-01
       21    -1     0     0   102   101  0.0000000000e+00  0.0000000000e+00  3.4843579585e+00  3.4843579585e+00  0.0000000000e+00 0. 9.
        2    -1     0     0   101     0  0.0000000000e+00  0.0000000000e+00 -3.3414871086e+01  3.3414871086e+01  0.0000000000e+00 0. 9.
       21     1     1     2   102   103  2.4763082409e-01  5.1305407565e+00  1.2584329648e+00  5.2884234897e+00  0.0000000000e+00 0. 9.
        2     1     1     2   103     0 -2.4763082409e-01 -5.1305407565e+00 -3.1188946093e+01  3.1610805555e+01  3.3000000000e-01 0. 9.
#pdf   21    2  3.484358e-02  3.341487e-01  5.137715e+00  2.826456e+00  4.357984e-01
</event>
<event>
     4  9999  1.000000e+00  5.266235e+00  7.574417e-03  2.373712e-01
        2    -1     0     0   101     0  0.0000000000e+00  0.0000000000e+00  6.9304155966e+01  6.9304155966e+01  0.0000000000e+00 0. 9.
       21    -1     0     0   102   103  0.0000000000e+00  0.0000000000e+00 -4.3677894574e-01  4.3677894574e-01  0.0000000000e+00 0. 9.
        2     1     1     2   102     0 -4.4825162970e-01  5.2423690947e+00  2.4377974873e+01  2.4941489975e+01  3.3000000000e-01 0. 9.
       21     1     1     2   101   103  4.4825162970e-01 -5.2423690947e+00  4.4489402147e+01  4.4799444937e+01  0.0000000000e+00 0. 9.
#pdf    2   21  6.930416e-01  4.367789e-03  5.266235e+00  4.795316e-02  8.913705e+00
</event>
<event>
     4  9999  1.000000e+00  6.252058e+00  7.588224e-03  2.261324e-01
       21    -1     0     0   102   103  0.0000000000e+00  0.0000000000e+00  1.1639563539e+00  1.1639563539e+00  0.0000000000e+00 0. 9.
        2    -1     0     0   101     0  0.0000000000e+00  0.0000000000e+00 -5.1277922843e+01  5.1277922843e+01  0.0000000000e+00 0. 9.
       21     1     1     2   101   103  3.7916489391e+00 -4.9674916698e+00 -9.6491629579e+00  1.1496039360e+01  0.0000000000e+00 0. 9.
        2     1     1     2   102     0 -3.7916489391e+00  4.9674916698e+00 -4.0464803532e+01  4.0945839838e+01  3.3000000000e-01 0. 9.
#pdf   21    2  1.163956e-02  5.127792e-01  6.252058e+00  5.691219e+00  1.848892e-01
</event>
<event>
     4  9999  1.000000e+00  6.763696e+00  7.594571e-03  2.213287e-01
       21    -1     0     0   102   103  0.0000000000e+00  0.0000000000e+00  3.4540574575e+00  3.4540574575e+00  0.0000000000e+00 0. 9.
        2    -1     0     0   101     0  0.0000000000e+00  0.0000000000e+00 -3.3812139459e+01  3.3812139459e+01  0.0000000000e+00 0. 9.
       21     1     1     2   101   103 -4.6484418078e+00 -4.9110333550e+00 -6.4640157883e-01  6.7929444908e+00  0.0000000000e+00 0. 9.
        2     1     1     2   102     0  4.6484418078e+00  4.9110333550e+00 -2.9711680422e+01  3.0473252425e+01  3.3000000000e-01 0. 9.
#pdf   21    2  3.454057e-02  3.381214e-01  6.763696e+00  2.893108e+00  4.089687e-01
</event>
<event>
     4  9999  1.000000e+00  6.389010e+00  7.589971e-03  2.247884e-01
       21    -1     0     0   102   101  0.0000000000e+00  0.0000000000e+00  5.7374765893e+00  5.7374765893e+00  0.0000000000e+00 0. 9.
       21    -1     0     0   104   103  0.0000000000e+00  0.0000000000e+00 -1.1164708291e+01  1.1164708291e+01  0.0000000000e+00 0. 9.
       21     1     1     2   104   101 -4.3160336934e+00 -4.7107650828e+00 -7.8037143227e+00  1.0085505031e+01  0.0000000000e+00 0. 9.
       21     1     1     2   102   103  4.3160336934e+00  4.7107650828e+00  2.3764826214e+00  6.8166798486e+00  0.0000000000e+00 0. 9.
#pdf   21   21  5.737477e-02  1.116471e-01  6.389010e+00  1.940925e+00  1.027203e+00
</event>
<event>
     4  9999  1.000000e+00  5.707830e+00  7.580890e-03  2.319613e-01
       21    -1     0     0   101   102  0.0000000000e+00  0.0000000000e+00  4.2615434115e+00  4.2615434115e+00  0.0000000000e+00 0. 9.
       21    -1     0     0   103   104  0.0000000000e+00  0.0000000000e+00 -9.9812710770e+00  9.9812710770e+00  0.0000000000e+00 0. 9.
       21     1     1     2   101   104 -1.8142162039e+00  5.4118337850e+00 -6.3052531959e+00  8.5050304652e+00  0.0000000000e+00 0. 9.
       21     1     1     2   103   102  1.8142162039e+00 -5.4118337850e+00  5.8552553034e-01  5.7377840232e+00  0.0000000000e+00 0. 9.
#pdf   21   21  4.261543e-02  9.981271e-02  5.707830e+00  2.458831e+00  1.167256e+00
</event>
<event>
     4  9999  1.000000e+00  5.721002e+00  7.581075e-03  2.318101e-01
       21    -1     0     0   101   102  0.0000000000e+00  0.0000000000e+00  1.3269724026e+00  1.3269724026e+00  0.0000000000e+00 0. 9.
       21    -1     0     0   102   103  0.0000000000e+00  0.0000000000e+00 -4.8945488353e+01  4.8945488353e+01  0.0000000000e+00 0. 9.
       21     1     1     2   101   104 -1.8685597495e+00 -5.4072494581e+00 -6.1052363586e+00  8.3668257562e+00  0.0000000000e+00 0. 9.
       21     1     1     2   104   103  1.8685597495e+00  5.4072494581e+00 -4.1513279592e+01  4.1905634999e+01  0.0000000000e+00 0. 9.
#pdf   21   21  1.326972e-02  4.894549e-01  5.721002e+00  5.203511e+00  7.034215e-02
</event>
<event>
     4  9999  1.000000e+00  6.834107e+00  7.595407e-03  2.207114e-01
       21    -1     0     0   102   101  0.0000000000e+00  0.0000000000e+00  2.6975517209e+01  2.6975517209e+01  0.0000000000e+00 0. 9.
        2    -1     0     0   101     0  0.0000000000e+00  0.0000000000e+00 -6.9923465592e+00  6.9923465592e+00  0.0000000000e+00 0. 9.
       21     1     1     2   102   103  4.9483199765e+00  4.7122883661e+00  2.4719935722e+01  2.5646963842e+01  0.0000000000e+00 0. 9.
        2     1     1     2   103     0 -4.9483199765e+00 -4.7122883661e+00 -4.7367650718e+00  8.3208999261e+00  3.3000000000e-01 0. 9.
#pdf   21    2  2.697552e-01  6.992347e-02  6.834107e+00  3.422408e-01  6.121009e-01
</event>
<event>
     4  9999  1.000000e+00  5.489712e+00  7.577756e-03  2.345479e-01
        1    -1     0     0   101     0  0.0000000000e+00  0.0000000000e+00  2.1902664628e+01  2.1902664628e+01  0.0000000000e+00 0. 9.
       21    -1     0     0   102   103  0.0000000000e+00  0.0000000000e+00 -1.8340645242e+00  1.8340645242e+00  0.0000000000e+00 0. 9.
        1     1     1     2   102     0 -9.7714285990e-01  5.3982674302e+00  1.5968674242e+01  1.6887970762e+01  3.3000000000e-01 0. 9.
       21     1     1     2   101   103  9.7714285990e-01 -5.3982674302e+00  4.0999258623e+00  6.8487583906e+00  0.0000000000e+00 0. 9.
#pdf    1   21  2.190266e-01  1.834065e-02  5.489712e+00  2.915265e-01  4.292425e+00
</event>
<event>
     4  9999  1.000000e+00  5.269891e+00  7.574472e-03  2.373235e-01
       21    -1     0     0   102   103  0.0000000000e+00  0.0000000000e+00  1.6921806158e+00  1.6921806158e+00  0.0000000000e+00 0. 9.
        2    -1     0     0   101     0  0.0000000000e+00  0.0000000000e+00 -3.2195535666e+01  3.2195535666e+01  0.0000000000e+00 0. 9.
       21     1     1     2   101   103 -4.6275772064e-01  5.2468905040e+00 -3.3863110491e+00  6.2618772896e+00  0.0000000000e+00 0. 9.
        2     1     1     2   102     0  4.6275772064e-01 -5.2468905040e+00 -2.7117044002e+01  2.7625838993e+01  3.3000000000e-01 0. 9.
#pdf   21    2  1.692181e-02  3.219554e-01  5.269891e+00  4.467708e+00  4.508268e-01
</event>
<event>
     4  9999  1.000000e+00  7.168790e+00  7.599270e-03  2.179056e-01
        2    -1     0     0   101     0  0.0000000000e+00  0.0000000000e+00  3.9928522116e+01  3.9928522116e+01  0.0000000000e+00 0. 9.
       21    -1     0     0   102   103  0.0000000000e+00  0.0000000000e+00 -8.9105474985e+00  8.9105474985e+00  0.0000000000e+00 0. 9.
        2     1     1     2   102     0  6.1251417809e-01  7.1420242142e+00  3.8095584515e+01  3.8765527766e+01  3.3000000000e-01 0. 9.
       21     1     1     2   101   103 -6.1251417809e-01 -7.1420242142e+00 -7.0776098976e+00  1.0073541848e+01  0.0000000000e+00 0. 9.
#pdf    2   21  3.992852e-01  8.910547e-02  7.168790e+00  3.187905e-01  1.285066e+00
</event>
<event>
     4  9999  1.000000e+00  5.286999e+00  7.574733e-03  2.371010e-01
       21    -1     0     0   102   101  0.0000000000e+00  0.0000000000e+00  6.6762599922e+00  6.6762599922e+00  0.0000000000e+00 0. 9.
       21    -1     0     0   104   103  0.0000000000e+00  0.0000000000e+00 -5.5621501730e+00  5.5621501730e+00  0.0000000000e+00 0. 9.
       21     1     1     2   104   101 -2.0523886969e+00 -4.8723776888e+00 -2.4857604895e+00  5.8422058263e+00  0.0000000000e+00 0. 9.
       21     1     1     2   102   103  2.0523886969e+00  4.8723776888e+00  3.5998703088e+00  6.3962043389e+00  0.0000000000e+00 0. 9.
#pdf   21   21  6.676260e-02  5.562150e-02  5.286999e+00  1.709641e+00  1.993087e+00
</event>
<event>
     4  9999  1.000000e+00  5.538983e+00  7.578475e-03  2.339496e-01
       21    -1     0     0   102   103  0.0000000000e+00  0.0000000000e+00  2.9780985918e+00  2.9780985918e+00  0.0000000000e+00 0. 9.
        2    -1     0     0   101     0  0.0000000000e+00  0.0000000000e+00 -1.6388689193e+01  1.6388689193e+01  0.0000000000e+00 0. 9.
       21     1     1     2   101   103 -2.6311644727e+00 -4.8706356238e+00 -1.2599546791e+01  1.3762074597e+01  0.0000000000e+00 0. 9.
        2     1     1     2   102     0  2.6311644727e+00  4.8706356238e+00 -8.1104381030e-01  5.6047131885e+00  3.3000000000e-01 0. 9.
#pdf   21    2  2.978099e-02  1.638869e-01  5.538983e+00  3.166847e+00  6.177188e-01
</event>
<event>
     4  9999  1.000000e+00  5.327426e+00  7.575345e-03  2.365796e-01
       21    -1     0     0   101   102  0.0000000000e+00  0.0000000000e+00  1.3766318123e+01  1.3766318123e+01  0.0000000000e+00 0. 9.
       21    -1     0     0   103   101  0.0000000000e+00  0.0000000000e+00 -2.1776262300e+00  2.1776262300e+00  0.0000000000e+00 0. 9.
       21     1     1     2   103   104 -3.3833847979e+00 -4.1151160791e+00  3.9546794015e+00  6.6348294781e+00  0.0000000000e+00 0. 9.
       21     1     1     2   104   102  3.3833847979e+00  4.1151160791e+00  7.6340124919e+00  9.3091148753e+00  0.0000000000e+00 0. 9.
#pdf   21   21  1.376632e-01  2.177626e-02  5.327426e+00  8.348732e-01  3.853399e+00
</event>
<event>
     4  9999  1.000000e+00  7.804849e+00  7.606149e-03  2.130893e-01
        2    -1     0     0   101     0  0.0000000000e+00  0.0000000000e+00  5.8476717030e+00  5.8476717030e+00  0.0000000000e+00 0. 9.
       21    -1     0     0   102   103  0.0000000000e+00  0.0000000000e+00 -1.9927777706e+01  1.9927777706e+01  0.0000000000e+00 0. 9.
        2     1     1     2   102     0 -7.7021550822e+00 -1.2506059708e+00  1.8595627710e+00  8.0283299573e+00  3.3000000000e-01 0. 9.
       21     1     1     2   101   103  7.7021550822e+00  1.2506059708e+00 -1.5939668774e+01  1.7747119451e+01  0.0000000000e+00 0. 9.
#pdf    2   21  5.847672e-02  1.992778e-01  7.804849e+00  6.048695e-01  5.021853e-01
</event>
<event>
     4  9999  1.000000e+00  5.616447e+00  7.579591e-03  2.330258e-01
       21    -1     0     0   102   101  0.0000000000e+00  0.0000000000e+00  7.5286323263e+00  7.5286323263e+00  0.0000000000e+00 0. 9.
       21    -1     0     0   103   102  0.0000000000e+00  0.0000000000e+00 -1.5090175695e+01  1.5090175695e+01  0.0000000000e+00 0. 9.
       21     1     1     2   104   101 -5.1668226585e+00  2.2019135213e+00  5.8311586869e+00  8.0961034561e+00  0.0000000000e+00 0. 9.
       21     1     1     2   103   104  5.1668226585e+00 -2.2019135213e+00 -1.3392702056e+01  1.4522704566e+01  0.0000000000e+00 0. 9.
#pdf   21   21  7.528632e-02  1.509018e-01  5.616447e+00  1.533231e+00  7.476830e-01
</event>
<event>
     4  9999  1.000000e+00  5.773967e+00  7.581817e-03  2.312074e-01
       21    -1     0     0   101   102  0.0000000000e+00  0.0000000000e+00  1.3420088487e+00  1.3420088487e+00  0.0000000000e+00 0. 9.
       21    -1     0     0   102   103  0.0000000000e+00  0.0000000000e+00 -2.9382440729e+01  2.9382440729e+01  0.0000000000e+00 0. 9.
       21     1     1     2   101   104  5.4026706692e+00  2.0371153963e+00 -7.9815477743e+00  9.8510808733e+00  0.0000000000e+00 0. 9.
       21     1     1     2   104   103 -5.4026706692e+00 -2.0371153963e+00 -2.0058884106e+01  2.0873368705e+01  0.0000000000e+00 0. 9.
#pdf   21   21  1.342009e-02  2.938244e-01  5.773967e+00  5.179484e+00  3.184190e-01
</event>
<event>
     4  9999  1.000000e+00  5.905236e+00  7.583626e-03  2.297503e-01
       21    -1     0     0   101   102  0.0000000000e+00  0.0000000000e+00  8.3503426102e+00  8.3503426102e+00  0.0000000000e+00 0. 9.
       21    -1     0     0   103   104  0.0000000000e+00  0.0000000000e+00 -2.1690951209e+01  2.1690951209e+01  0.0000000000e+00 0. 9.
       21     1     1     2   101   104 -4.6780909009e+00  3.6037871146e+00  6.8271740191e+00  9.0267447694e+00  0.0000000000e+00 0. 9.
       21     1     1     2   103   102  4.6780909009e+00 -3.6037871146e+00 -2.0167782618e+01  2.1014549050e+01  0.0000000000e+00 0. 9.
#pdf   21   21  8.350343e-02  2.169095e-01  5.905236e+00  1.387885e+00  4.798497e-01
</event>
<event>
     4  9999  1.000000e+00  6.689476e+00  7.593680e-03  2.219902e-01
       21    -1     0     0   102   101  0.0000000000e+00  0.0000000000e+00  1.2401491813e+01  1.2401491813e+01  0.0000000000e+00 0. 9.
       21    -1     0     0   104   103  0.0000000000e+00  0.0000000000e+00 -6.6642727442e+00  6.6642727442e+00  0.0000000000e+00 0. 9.
       21     1     1     2   104   101 -2.9130306775e+00 -6.0219054668e+00  9.3239337406e+00  1.1475401238e+01  0.0000000000e+00 0. 9.
       21     1     1     2   102   103  2.9130306775e+00  6.0219054668e+00 -3.5867146717e+00  7.5903633191e+00  0.0000000000e+00 0. 9.
#pdf   21   21  1.240149e-01  6.664273e-02  6.689476e+00  9.110777e-01  1.700964e+00
</event>
<event>
     4  9999  1.000000e+00  6.188340e+00  7.587399e-03  2.267733e-01
       21    -1     0     0   102   101  0.0000000000e+00  0.0000000000e+00  3.1055788708e+01  3.1055788708e+01  0.0000000000e+00 0. 9.
       21    -1     0     0   104   103  0.0000000000e+00  0.0000000000e+00 -3.6894011146e+00  3.6894011146e+00  0.0000000000e+00 0. 9.
       21     1     1     2   104   101  6.1628811037e+00  5.6075666753e-01 -4.9189159845e-01  6.2078586391e+00  0.0000000000e+00 0. 9.
       21     1     1     2   102   103 -6.1628811037e+00 -5.6075666753e-01  2.7858279192e+01  2.8537331183e+01  0.0000000000e+00 0. 9.
#pdf   21   21  3.105579e-01  3.689401e-02  6.188340e+00  2.821307e-01  2.745375e+00
</event>
<event>
     4  9999  1.000000e+00  7.089190e+00  7.598368e-03  2.185545e-01
       21    -1     0     0   102   101  0.0000000000e+00  0.0000000000e+00  1.8495053213e+01  1.8495053213e+01  0.0000000000e+00 0. 9.
       21    -1     0     0   103   102  0.0000000000e+00  0.0000000000e+00 -4.1442665698e+00  4.1442665698e+00  0.0000000000e+00 0. 9.
       21     1     1     2   104   101  2.6082659830e+00 -6.5919317356e+00  1.3817661040e+01  1.5530111785e+01  0.0000000000e+00 0. 9.
       21     1     1     2   103   104 -2.6082659830e+00  6.5919317356e+00  5.3312560330e-01  7.1092079977e+00  0.0000000000e+00 0. 9.
#pdf   21   21  1.849505e-01  4.144267e-02  7.089190e+00  5.638819e-01  2.527205e+00
</event>
<event>
     4  9999  1.000000e+00  6.694329e+00  7.593738e-03  2.219466e-01
       -1    -1     0     0     0   101  0.0000000000e+00  0.0000000000e+00  8.8000960292e+00  8.8000960292e+00  0.0000000000e+00 0. 9.
       21    -1     0     0   101   102  0.0000000000e+00  0.0000000000e+00 -1.6674059366e+01  1.6674059366e+01  0.0000000000e+00 0. 9.
       -1     1     1     2     0   103 -6.2986849126e+00  2.2636221087e+00  6.6756505341e+00  9.4588914114e+00  3.3000000000e-01 0. 9.
       21     1     1     2   103   102  6.2986849126e+00 -2.2636221087e+00 -1.4549613870e+01  1.6015263983e+01  0.0000000000e+00 0. 9.
#pdf   -1   21  8.800096e-02  1.667406e-01  6.694329e+00  1.217118e-01  6.470093e-01
</event>
<event>
     4  9999  1.000000e+00  5.064130e+00  7.571275e-03  2.400925e-01
        2    -1     0     0   101     0  0.0000000000e+00  0.0000000000e+00  2.0573555190e+01  2.0573555190e+01  0.0000000000e+00 0. 9.
        2    -1     0     0   102     0  0.0000000000e+00  0.0000000000e+00 -4.9901388569e+01  4.9901388569e+01  0.0000000000e+00 0. 9.
        2     1     1     2   102     0  4.4076469692e+00  2.4930587066e+00  2.0128815154e+01  2.0758631772e+01  3.3000000000e-01 0. 9.
        2     1     1     2   101     0 -4.4076469692e+00 -2.4930587066e+00 -4.9456648533e+01  4.9716311988e+01  3.3000000000e-01 0. 9.
#pdf    2    2  2.057356e-01  4.990139e-01  5.064130e+00  5.923497e-01  2.129463e-01
</event>
<event>
     4  9999  1.000000e+00  5.329681e+00  7.575379e-03  2.365507e-01
       21    -1     0     0   102   101  0.0000000000e+00  0.0000000000e+00  2.9121609020e+00  2.9121609020e+00  0.0000000000e+00 0. 9.
       21    -1     0     0   103   102  0.0000000000e+00  0.0000000000e+00 -1.4490543917e+01  1.4490543917e+01  0.0000000000e+00 0. 9.
       21     1     1     2   104   101  4.7883393785e+00 -2.3403635133e+00 -8.1444651978e-01  5.3915506593e+00  0.0000000000e+00 0. 9.
       21     1     1     2   103   104 -4.7883393785e+00  2.3403635133e+00 -1.0763936496e+01  1.2011154160e+01  0.0000000000e+00 0. 9.
#pdf   21   21  2.912161e-02  1.449054e-01  5.329681e+00  3.202866e+00  7.884881e-01
</event>
<event>
     4  9999  1.000000e+00  6.620337e+00  7.592841e-03  2.226167e-01
       21    -1     0     0   102   101  0.0000000000e+00  0.0000000000e+00  2.9148860025e+00  2.9148860025e+00  0.0000000000e+00 0. 9.
       21    -1     0     0   103   102  0.0000000000e+00  0.0000000000e+00 -2.3091311329e+01  2.3091311329e+01  0.0000000000e+00 0. 9.
       21     1     1     2   104   101  3.3519951077e+00 -5.7090276486e+00 -2.4082733608e+00  7.0447603561e+00  0.0000000000e+00 0. 9.
       21     1     1     2   103   104 -3.3519951077e+00  5.7090276486e+00 -1.7768151966e+01  1.8961436976e+01  0.0000000000e+00 0. 9.
#pdf   21   21  2.914886e-02  2.309131e-01  6.620337e+00  3.259147e+00  4.298336e-01
</event>
<event>
     4  9999  1.000000e+00  5.310384e+00  7.575087e-03  2.367986e-01
       21    -1     0     0   102   101  0.0000000000e+00  0.0000000000e+00  2.7930205224e+00  2.7930205224e+00  0.0000000000e+00 0. 9.
       21    -1     0     0   104   103  0.0000000000e+00  0.0000000000e+00 -1.0536202542e+01  1.0536202542e+01  0.0000000000e+00 0. 9.
       21     1     1     2   104   101 -4.8330894178e+00  2.2003226990e+00 -2.5103526536e+00  5.8738440348e+00  0.0000000000e+00 0. 9.
       21     1     1     2   102   103  4.8330894178e+00 -2.2003226990e+00 -5.2328293657e+00  7.4553790293e+00  0.0000000000e+00 0. 9.
#pdf   21   21  2.793021e-02  1.053620e-01  5.310384e+00  3.290778e+00  1.111285e+00
</event>
<event>
     4  9999  1.000000e+00  5.082326e+00  7.571562e-03  2.398405e-01
       21    -1     0     0   102   101  0.0000000000e+00  0.0000000000e+00  2.0972485888e+00  2.0972485888e+00  0.0000000000e+00 0. 9.
        2    -1     0     0   101     0  0.0000000000e+00  0.0000000000e+00 -1.7630916625e+01  1.7630916625e+01  0.0000000000e+00 0. 9.
       21     1     1     2   102   103 -4.9677843775e+00 -1.0550510545e+00 -2.3493207896e+00  5.5956521087e+00  0.0000000000e+00 0. 9.
        2     1     1     2   103     0  4.9677843775e+00  1.0550510545e+00 -1.3184347246e+01  1.4132513105e+01  3.3000000000e-01 0. 9.
#pdf   21    2  2.097249e-02  1.763092e-01  5.082326e+00  3.913858e+00  6.142715e-01
</event>
<event>
     4  9999  1.000000e+00  7.734168e+00  7.605413e-03  2.135945e-01
       21    -1     0     0   102   101  0.0000000000e+00  0.0000000000e+00  2.4776878046e+00  2.4776878046e+00  0.0000000000e+00 0. 9.
       21    -1     0     0   104   103  0.0000000000e+00  0.0000000000e+00 -2.5393796618e+01  2.5393796618e+01  0.0000000000e+00 0. 9.
       21     1     1     2   104   101  6.3480872816e+00  4.4180477315e+00 -8.3644710374e+00  1.1392178616e+01  0.0000000000e+00 0. 9.
       21     1     1     2   102   103 -6.3480872816e+00 -4.4180477315e+00 -1.4551637776e+01  1.6479305806e+01  0.0000000000e+00 0. 9.
#pdf   21   21  2.477688e-02  2.539380e-01  7.734168e+00  3.684809e+00  3.602596e-01
</event>
<event>
     4  9999  1.000000e+00  8.238763e+00  7.610534e-03  2.101332e-01
       21    -1     0     0   103   102  0.0000000000e+00  0.0000000000e+00  7.2336587767e+00  7.2336587767e+00  0.0000000000e+00 0. 9.
       -1    -1     0     0     0   101  0.0000000000e+00  0.0000000000e+00 -1.7553254199e+01  1.7553254199e+01  0.0000000000e+00 0. 9.
       21     1     1     2   103   101  5.4772186790e-03 -8.2369945944e+00  3.2945708274e+00  8.8714320650e+00  0.0000000000e+00 0. 9.
       -1     1     1     2     0   102 -5.4772186790e-03  8.2369945944e+00 -1.3614166250e+01  1.5915480911e+01  3.3000000000e-01 0. 9.
#pdf   21   -1  7.233659e-02  1.755325e-01  8.238763e+00  1.561822e+00  5.276977e-02
</event>
<event>
     4  9999  1.000000e+00  1.057185e+01  7.631122e-03  1.975061e-01
        2    -1     0     0   101     0  0.0000000000e+00  0.0000000000e+00  5.5446243846e+00  5.5446243846e+00  0.0000000000e+00 0. 9.
        2    -1     0     0   102     0  0.0000000000e+00  0.0000000000e+00 -3.7814843242e+01  3.7814843242e+01  0.0000000000e+00 0. 9.
        2     1     1     2   101     0  3.9627105158e+00 -9.7981042227e+00 -3.0945845508e+01  3.2702601964e+01  3.3000000000e-01 0. 9.
        2     1     1     2   102     0 -3.9627105158e+00  9.7981042227e+00 -1.3243733495e+00  1.0656865663e+01  3.3000000000e-01 0. 9.
#pdf    2    2  5.544624e-02  3.781484e-01  1.057185e+01  6.068833e-01  3.229718e-01
</event>
<event>
     4  9999  1.000000e+00  7.850412e+00  7.606621e-03  2.127673e-01
       21    -1     0     0   101   102  0.0000000000e+00  0.0000000000e+00  3.4295492107e+01  3.4295492107e+01  0.0000000000e+00 0. 9.
       21    -1     0     0   103   101  0.0000000000e+00  0.0000000000e+00 -4.3753753700e+00  4.3753753700e+00  0.0000000000e+00 0. 9.
       21     1     1     2   103   104 -6.0929312124e+00  4.9502688500e+00  1.1713662154e-01  7.8512861006e+00  0.0000000000e+00 0. 9.
       21     1     1     2   104   102  6.0929312124e+00 -4.9502688500e+00  2.9802980115e+01  3.0819581376e+01  0.0000000000e+00 0. 9.
#pdf   21   21  3.429549e-01  4.375375e-02  7.850412e+00  2.073897e-01  2.425817e+00
</event>
<event>
     4  9999  1.000000e+00  6.010990e+00  7.585056e-03  2.286127e-01
       21    -1     0     0   101   102  0.0000000000e+00  0.0000000000e+00  8.6387091182e+00  8.6387091182e+00  0.0000000000e+00 0. 9.
       21    -1     0     0   102   103  0.0000000000e+00  0.0000000000e+00 -3.8691489964e+01  3.8691489964e+01  0.0000000000e+00 0. 9.
       21     1     1     2   101   104 -4.8617292397e+00 -3.5349107981e+00  7.3230313819e+00  9.4741117879e+00  0.0000000000e+00 0. 9.
       21     1     1     2   104   103  4.8617292397e+00  3.5349107981e+00 -3.7375812228e+01  3.7856087294e+01  0.0000000000e+00 0. 9.
#pdf   21   21  8.638709e-02  3.869149e-01  6.010990e+00  1.341738e+00  1.750131e-01
</event>
<event>
     4  9999  1.000000e+00  5.154629e+00  7.572696e-03  2.388531e-01
       21    -1     0     0   102   101  0.0000000000e+00  0.0000000000e+00  2.1431318039e+01  2.1431318039e+01  0.0000000000e+00 0. 9.
        2    -1     0     0   101     0  0.0000000000e+00  0.0000000000e+00 -1.2660836876e+00  1.2660836876e+00  0.0000000000e+00 0. 9.
       21     1     1     2   102   103  5.1244954002e+00  5.0641363691e-01  1.1706516471e+01  1.2789035763e+01  0.0000000000e+00 0. 9.
        2     1     1     2   103     0 -5.1244954002e+00 -5.0641363691e-01  8.4587178812e+00  9.9083659637e+00  3.3000000000e-01 0. 9.
#pdf   21    2  2.143132e-01  1.266084e-02  5.154629e+00  5.029490e-01  5.470519e-01
</event>
<event>
     4  9999  1.000000e+00  5.741075e+00  7.581357e-03  2.315806e-01
       21    -1     0     0   103   102  0.0000000000e+00  0.0000000000e+00  6.8298512112e+00  6.8298512112e+00  0.0000000000e+00 0. 9.
       -2    -1     0     0     0   101  0.0000000000e+00  0.0000000000e+00 -5.2210819100e+00  5.2210819100e+00  0.0000000000e+00 0. 9.
       21     1     1     2   103   101  5.5257953559e+00 -1.5411734538e+00  2.4602900323e+00  6.2420074473e+00  0.0000000000e+00 0. 9.
       -2     1     1     2     0   102 -5.5257953559e+00  1.5411734538e+00 -8.5152073100e-01  5.8089256739e+00  3.3000000000e-01 0. 9.
#pdf   21   -2  6.829851e-02  5.221082e-02  5.741075e+00  1.672370e+00  1.411455e-01
</event>
<event>
     4  9999  1.000000e+00  5.371805e+00  7.576011e-03  2.360144e-01
        3    -1     0     0   101     0  0.0000000000e+00  0.0000000000e+00  2.1893320134e+01  2.1893320134e+01  0.0000000000e+00 0. 9.
       21    -1     0     0   102   101  0.0000000000e+00  0.0000000000e+00 -1.0217548955e+01  1.0217548955e+01  0.0000000000e+00 0. 9.
        3     1     1     2   103     0 -4.9678506443e+00 -2.0397616776e+00  2.0819466022e+01  2.1506750874e+01  5.0000000000e-01 0. 9.
       21     1     1     2   102   103  4.9678506443e+00  2.0397616776e+00 -9.1436948429e+00  1.0604118214e+01  0.0000000000e+00 0. 9.
#pdf    3   21  2.189332e-01  1.021755e-01  5.371805e+00  1.363794e-02  1.145691e+00
</event>
<event>
     4  9999  1.000000e+00  6.188733e+00  7.587404e-03  2.267694e-01
       21    -1     0     0   101   102  0.0000000000e+00  0.0000000000e+00  3.6403489870e+01  3.6403489870e+01  0.0000000000e+00 0. 9.
       21    -1     0     0   103   104  0.0000000000e+00  0.0000000000e+00 -1.5211337604e+00  1.5211337604e+00  0.0000000000e+00 0. 9.
       21     1     1     2   101   104 -4.6333995374e+00  4.1026849435e+00  6.9117259027e+00  9.2775196024e+00  0.0000000000e+00 0. 9.
       21     1     1     2   103   102  4.6333995374e+00 -4.1026849435e+00  2.7970630207e+01  2.8647104028e+01  0.0000000000e+00 0. 9.
#pdf   21   21  3.640349e-01  1.521134e-02  6.188733e+00  2.025524e-01  4.879409e+00
</event>
<event>
     4  9999  1.000000e+00  5.248742e+00  7.574149e-03  2.376002e-01
        2    -1     0     0   101     0  0.0000000000e+00  0.0000000000e+00  8.2449471353e+00  8.2449471353e+00  0.0000000000e+00 0. 9.
       21    -1     0     0   102   103  0.0000000000e+00  0.0000000000e+00 -3.8419684298e+00  3.8419684298e+00  0.0000000000e+00 0. 9.
        2     1     1     2   102     0 -2.9197455243e+00 -4.3562646097e+00  4.3830311624e+00  6.8426469621e+00  3.3000000000e-01 0. 9.
       21     1     1     2   101   103  2.9197455243e+00  4.3562646097e+00  1.9947543023e-02  5.2442686031e+00  0.0000000000e+00 0. 9.
#pdf    2   21  8.244947e-02  3.841968e-02  5.248742e+00  6.188331e-01  2.642840e+00
</event>
<event>
     4  9999  1.000000e+00  5.614847e+00  7.579568e-03  2.330447e-01
        1    -1     0     0   101     0  0.0000000000e+00  0.0000000000e+00  2.0417985097e+01  2.0417985097e+01  0.0000000000e+00 0. 9.
        1    -1     0     0   102     0  0.0000000000e+00  0.0000000000e+00 -2.7268139130e+00  2.7268139130e+00  0.0000000000e+00 0. 9.
        1     1     1     2   101     0 -5.1658149520e+00  2.1861366987e+00  1.2314861828e+00  5.7524165359e+00  3.3000000000e-01 0. 9.
        1     1     1     2   102     0  5.1658149520e+00 -2.1861366987e+00  1.6459685001e+01  1.7392382474e+01  3.3000000000e-01 0. 9.
#pdf    1    1  2.041799e-01  2.726814e-02  5.614847e+00  3.061137e-01  4.386213e-01
</event>
<event>
     4  9999  1.000000e+00  7.401573e+00  7.601855e-03  2.160698e-01
       21    -1     0     0   101   102  0.0000000000e+00  0.0000000000e+00  1.3986752638e+01  1.3986752638e+01  0.0000000000e+00 0. 9.
       21    -1     0     0   103   101  0.0000000000e+00  0.0000000000e+00 -3.9289731297e+00  3.9289731297e+00  0.0000000000e+00 0. 9.
       21     1     1     2   103   104 -6.6753828466e+00  3.1972707175e+00  4.5302204814e+00  8.6779129864e+00  0.0000000000e+00 0. 9.
       21     1     1     2   104   102  6.6753828466e+00 -3.1972707175e+00  5.5275590273e+00  9.2378127817e+00  0.0000000000e+00 0. 9.
#pdf   21   21  1.398675e-01  3.928973e-02  7.401573e+00  7.838011e-01  2.636142e+00
</event>
<event>
     4  9999  1.000000e+00  6.596371e+00  7.592548e-03  2.228362e-01
       -3    -1     0     0     0   101  0.0000000000e+00  0.0000000000e+00  8.0321384211e+00  8.0321384211e+00  0.0000000000e+00 0. 9.
       21    -1     0     0   103   102  0.0000000000e+00  0.0000000000e+00 -6.6526792588e+00  6.6526792588e+00  0.0000000000e+00 0. 9.
       -3     1     1     2     0   102  3.6760776515e+00 -5.4678003203e+00  3.8509262096e+00  7.6478768240e+00  5.0000000000e-01 0. 9.
       21     1     1     2   103   101 -3.6760776515e+00  5.4678003203e+00 -2.4714670474e+00  7.0369408559e+00  0.0000000000e+00 0. 9.
#pdf   -3   21  8.032138e-02  6.652679e-02  6.596371e+00  4.536560e-02  1.704544e+00
</event>
<event>
     4  9999  1.000000e+00  5.137522e+00  7.572430e-03  2.390847e-01
        4    -1     0     0   101     0  0.0000000000e+00  0.0000000000e+00  1.3540470680e+01  1.3540470680e+01  0.0000000000e+00 0. 9.
       21    -1     0     0   102   103  0.0000000000e+00  0.0000000000e+00 -2.7438146270e+00  2.7438146270e+00  0.0000000000e+00 0. 9.
        4     1     1     2   102     0  2.9155705087e+00  4.1352633447e+00  9.7951797249e+00  1.1126387561e+01  1.5000000000e+00 0. 9.
       21     1     1     2   101   103 -2.9155705087e+00 -4.1352633447e+00  1.0014763283e+00  5.1578977459e+00  0.0000000000e+00 0. 9.
#pdf    4   21  1.354047e-01  2.743815e-02  5.137522e+00  1.547388e-02  3.316089e+00
</event>
<event>
     4  9999  1.000000e+00  6.120501e+00  7.586510e-03  2.274671e-01
       21    -1     0     0   101   102  0.0000000000e+00  0.0000000000e+00  3.6296833323e+00  3.6296833323e+00  0.0000000000e+00 0. 9.
       21    -1     0     0   103   104  0.0000000000e+00  0.0000000000e+00 -1.0470717672e+01  1.0470717672e+01  0.0000000000e+00 0. 9.
       21     1     1     2   101   104 -9.6929676091e-01 -6.0432608769e+00 -4.2646636616e+00  7.4597516301e+00  0.0000000000e+00 0. 9.
       21     1     1     2   103   102  9.6929676091e-01  6.0432608769e+00 -2.5763706777e+00  6.6406493738e+00  0.0000000000e+00 0. 9.
#pdf   21   21  3.629683e-02  1.047072e-01  6.120501e+00  2.776591e+00  1.104023e+00
</event>
<event>
     4  9999  1.000000e+00  5.213296e+00  7.573605e-03  2.380679e-01
       21    -1     0     0   101   102  0.0000000000e+00  0.0000000000e+00  3.2782047138e+00  3.2782047138e+00  0.0000000000e+00 0. 9.
       21    -1     0     0   103   104  0.0000000000e+00  0.0000000000e+00 -2.2058588607e+01  2.2058588607e+01  0.0000000000e+00 0. 9.
       21     1     1     2   101   104  1.7361004895e+00  4.9157310220e+00 -1.9398650894e+01  2.0086963755e+01  0.0000000000e+00 0. 9.
       21     1     1     2   103   102 -1.7361004895e+00 -4.9157310220e+00  6.1826700039e-01  5.2498295661e+00  0.0000000000e+00 0. 9.
#pdf   21   21  3.278205e-02  2.205859e-01  5.213296e+00  2.951274e+00  4.842418e-01
</event>
<event>
     4  9999  1.000000e+00  5.247122e+00  7.574125e-03  2.376215e-01
       21    -1     0     0   102   103  0.0000000000e+00  0.0000000000e+00  4.9887081742e+00  4.9887081742e+00  0.0000000000e+00 0. 9.
        2    -1     0     0   101     0  0.0000000000e+00  0.0000000000e+00 -2.9135625825e+01  2.9135625825e+01  0.0000000000e+00 0. 9.
       21     1     1     2   101   103 -4.5919418821e+00  2.5369366685e+00  3.2873556272e+00  6.1910164697e+00  0.0000000000e+00 0. 9.
        2     1     1     2   102     0  4.5919418821e+00 -2.5369366685e+00 -2.7434273278e+01  2.7933317530e+01  3.3000000000e-01 0. 9.
#pdf   21    2  4.988708e-02  2.913563e-01  5.247122e+00  2.173284e+00  4.929020e-01
</event>
<event>
     4  9999  1.000000e+00  7.275637e+00  7.600467e-03  2.170518e-01
       21    -1     0     0   103   102  0.0000000000e+00  0.0000000000e+00  1.1362889169e+01  1.1362889169e+01  0.0000000000e+00 0. 9.
       -2    -1     0     0     0   101  0.0000000000e+00  0.0000000000e+00 -7.1816213282e+00  7.1816213282e+00  0.0000000000e+00 0. 9.
       21     1     1     2   103   101 -5.4582942475e+00  4.8069331905e+00  7.5839740328e+00  1.0507913443e+01  0.0000000000e+00 0. 9.
       -2     1     1     2     0   102  5.4582942475e+00 -4.8069331905e+00 -3.4027061919e+00  8.0365970546e+00  3.3000000000e-01 0. 9.
#pdf   21   -2  1.136289e-01  7.181621e-02  7.275637e+00  9.938360e-01  1.064090e-01
</event>
<event>
     4  9999  1.000000e+00  5.565865e+00  7.578864e-03  2.336268e-01
       21    -1     0     0   102   101  0.0000000000e+00  0.0000000000e+00  3.8987709495e+00  3.8987709495e+00  0.0000000000e+00 0. 9.
       21    -1     0     0   103   102  0.0000000000e+00  0.0000000000e+00 -1.0005406457e+01  1.0005406457e+01  0.0000000000e+00 0. 9.
       21     1     1     2   104   101  6.9333327678e-01  5.5225121987e+00  1.0088871723e-01  5.5667791901e+00  0.0000000000e+00 0. 9.
       21     1     1     2   103   104 -6.9333327678e-01 -5.5225121987e+00 -6.2075242249e+00  8.3373982165e+00  0.0000000000e+00 0. 9.
#pdf   21   21  3.898771e-02  1.000541e-01  5.565865e+00  2.623988e+00  1.166935e+00
</event>
<event>
     4  9999  1.000000e+00  8.518876e+00  7.613246e-03  2.083471e-01
       21    -1     0     0   102   101  0.0000000000e+00  0.0000000000e+00  1.8269625153e+01  1.8269625153e+01  0.0000000000e+00 0. 9.
        2    -1     0     0   101     0  0.0000000000e+00  0.0000000000e+00 -1.4825771731e+01  1.4825771731e+01  0.0000000000e+00 0. 9.
       21     1     1     2   102   103  8.5180167653e+00 -7.5039096728e-03  1.5878743429e+01  1.8019188628e+01  0.0000000000e+00 0. 9.
        2     1     1     2   103     0 -8.5180167653e+00  7.5039096728e-03 -1.2434890007e+01  1.5076208257e+01  3.3000000000e-01 0. 9.
#pdf   21    2  1.826963e-01  1.482577e-01  8.518876e+00  5.524499e-01  6.104750e-01
</event>
<event>
     4  9999  1.000000e+00  5.991970e+00  7.584800e-03  2.288150e-01
        2    -1     0     0   101     0  0.0000000000e+00  0.0000000000e+00  2.5186420621e+01  2.5186420621e+01  0.0000000000e+00 0. 9.
       21    -1     0     0   102   103  0.0000000000e+00  0.0000000000e+00 -2.0653258624e+00  2.0653258624e+00  0.0000000000e+00 0. 9.
        2     1     1     2   102     0 -5.7527654711e+00  1.6648789350e+00  1.9146565696e+01  2.0064047707e+01  3.3000000000e-01 0. 9.
       21     1     1     2   101   103  5.7527654711e+00 -1.6648789350e+00  3.9745290625e+00  7.1876987765e+00  0.0000000000e+00 0. 9.
#pdf    2   21  2.518642e-01  2.065326e-02  5.991970e+00  5.333139e-01  4.041660e+00
</event>
<event>
     4  9999  1.000000e+00  5.409372e+00  7.576571e-03  2.355417e-01
       21    -1     0     0   102   103  0.0000000000e+00  0.0000000000e+00  3.2340103674e+00  3.2340103674e+00  0.0000000000e+00 0. 9.
        2    -1     0     0   101     0  0.0000000000e+00  0.0000000000e+00 -3.5499383859e+01  3.5499383859e+01  0.0000000000e+00 0. 9.
       21     1     1     2   101   103  1.8980414230e+00  5.0640757323e+00  5.8460082056e-01  5.4395939541e+00  0.0000000000e+00 0. 9.
        2     1     1     2   102     0 -1.8980414230e+00 -5.0640757323e+00 -3.2849974312e+01  3.3293800272e+01  3.3000000000e-01 0. 9.
#pdf   21    2  3.234010e-02  3.549938e-01  5.409372e+00  2.989168e+00  4.019465e-01
</event>
<event>
     4  9999  1.000000e+00  5.159870e+00  7.572778e-03  2.387824e-01
       21    -1     0     0   101   102  0.0000000000e+00  0.0000000000e+00  2.4990131898e+00  2.4990131898e+00  0.0000000000e+00 0. 9.
       21    -1     0     0   103   101  0.0000000000e+00  0.0000000000e+00 -1.2474471771e+01  1.2474471771e+01  0.0000000000e+00 0. 9.
       21     1     1     2   103   104 -3.8184899823e-01 -5.1457213422e+00 -7.8478525682e+00  9.3921800835e+00  0.0000000000e+00 0. 9.
       21     1     1     2   104   102  3.8184899823e-01  5.1457213422e+00 -2.1276060132e+00  5.5813048775e+00  0.0000000000e+00 0. 9.
#pdf   21   21  2.499013e-02  1.247447e-01  5.159870e+00  3.521644e+00  9.331810e-01
</event>
<event>
     4  9999  1.000000e+00  5.530289e+00  7.578348e-03  2.340546e-01
       21    -1     0     0   102   103  0.0000000000e+00  0.0000000000e+00  5.9505775407e+00  5.9505775407e+00  0.0000000000e+00 0. 9.
        2    -1     0     0   101     0  0.0000000000e+00  0.0000000000e+00 -5.4779670877e+00  5.4779670877e+00  0.0000000000e+00 0. 9.
       21     1     1     2   101   103 -1.1233987738e+00 -5.4102681470e+00 -1.1827145292e+00  5.6508264781e+00  0.0000000000e+00 0. 9.
        2     1     1     2   102     0  1.1233987738e+00  5.4102681470e+00  1.6553249821e+00  5.7777181503e+00  3.3000000000e-01 0. 9.
#pdf   21    2  5.950578e-02  5.477967e-02  5.530289e+00  1.885213e+00  5.948161e-01
</event>
<event>
     4  9999  1.000000e+00  5.214325e+00  7.573621e-03  2.380542e-01
       21    -1     0     0   102   103  0.0000000000e+00  0.0000000000e+00  3.9988268480e+00  3.9988268480e+00  0.0000000000e+00 0. 9.
        2    -1     0     0   101     0  0.0000000000e+00  0.0000000000e+00 -7.7943815815e+00  7.7943815815e+00  0.0000000000e+00 0. 9.
       21     1     1     2   101   103  4.4724573034e+00 -2.6718596982e+00  2.0893313451e-01  5.2139583458e+00  0.0000000000e+00 0. 9.
        2     1     1     2   102     0 -4.4724573034e+00  2.6718596982e+00 -4.0044878680e+00  6.5792500836e+00  3.3000000000e-01 0. 9.
#pdf   21    2  3.998827e-02  7.794382e-02  5.214325e+00  2.566513e+00  6.157102e-01
</event>
<event>
     4  9999  1.000000e+00  5.474188e+00  7.577528e-03  2.347381e-01
       21    -1     0     0   102   101  0.0000000000e+00  0.0000000000e+00  4.3807442079e+00  4.3807442079e+00  0.0000000000e+00 0. 9.
        3    -1     0     0   101     0  0.0000000000e+00  0.0000000000e+00 -1.2974328854e+01  1.2974328854e+01  0.0000000000e+00 0. 9.
       21     1     1     2   102   103 -5.4496441890e+00 -4.4971080513e-01  1.6678464597e+00  5.7168674471e+00  0.0000000000e+00 0. 9.
        3     1     1     2   103     0  5.4496441890e+00  4.4971080513e-01 -1.0261431106e+01  1.1638205615e+01  5.0000000000e-01 0. 9.
#pdf   21    3  4.380744e-02  1.297433e-01  5.474188e+00  2.405236e+00  2.629530e-02
</event>
<event>
     4  9999  1.000000e+00  6.056122e+00  7.585658e-03  2.281367e-01
       -1    -1     0     0     0   101  0.0000000000e+00  0.0000000000e+00  3.6321279311e+00  3.6321279311e+00  0.0000000000e+00 0. 9.
       21    -1     0     0   101   102  0.0000000000e+00  0.0000000000e+00 -1.0137444373e+01  1.0137444373e+01  0.0000000000e+00 0. 9.
       -1     1     1     2     0   103 -6.0499772141e+00  1.4203245368e-01 -2.8250073596e+00  6.6867005384e+00  3.3000000000e-01 0. 9.
       21     1     1     2   103   102  6.0499772141e+00 -1.4203245368e-01 -3.6803090826e+00  7.0828717659e+00  0.0000000000e+00 0. 9.
#pdf   -1   21  3.632128e-02  1.013744e-01  6.056122e+00  2.236768e-01  1.142874e+00
</event>
<event>
     4  9999  1.000000e+00  5.310830e+00  7.575094e-03  2.367929e-01
       21    -1     0     0   102   101  0.0000000000e+00  0.0000000000e+00  2.7336650410e+01  2.7336650410e+01  0.0000000000e+00 0. 9.
       21    -1     0     0   103   102  0.0000000000e+00  0.0000000000e+00 -2.9237375681e+00  2.9237375681e+00  0.0000000000e+00 0. 9.
       21     1     1     2   104   101  3.7074939213e+00 -3.8025517128e+00  2.4377647791e+01  2.4949441327e+01  0.0000000000e+00 0. 9.
       21     1     1     2   103   104 -3.7074939213e+00  3.8025517128e+00  3.5265050692e-02  5.3109466509e+00  0.0000000000e+00 0. 9.
#pdf   21   21  2.733665e-01  2.923738e-02  5.310830e+00  3.654296e-01  3.193217e+00
</event>
<event>
     4  9999  1.000000e+00  6.109606e+00  7.586367e-03  2.275797e-01
       -3    -1     0     0     0   101  0.0000000000e+00  0.0000000000e+00  4.2367689784e+01  4.2367689784e+01  0.0000000000e+00 0. 9.
       21    -1     0     0   103   102  0.0000000000e+00  0.0000000000e+00 -8.8180523958e-01  8.8180523958e-01  0.0000000000e+00 0. 9.
       -3     1     1     2     0   102 -6.0916150746e+00 -3.0778182281e-01  2.0138351618e+01  2.1047700819e+01  5.0000000000e-01 0. 9.
       21     1     1     2   103   101  6.0916150746e+00  3.0778182281e-01  2.1347532927e+01  2.2201794205e+01  0.0000000000e+00 0. 9.
#pdf   -3   21  4.236769e-01  8.818052e-03  6.109606e+00  3.390214e-03  6.579228e+00
</event>
<event>
     4  9999  1.000000e+00  5.363097e+00  7.575881e-03  2.361247e-01
       21    -1     0     0   102   101  0.0000000000e+00  0.0000000000e+00  6.5536140716e+00  6.5536140716e+00  0.0000000000e+00 0. 9.
       21    -1     0     0   104   103  0.0000000000e+00  0.0000000000e+00 -5.9422125296e+00  5.9422125296e+00  0.0000000000e+00 0. 9.
       21     1     1     2   104   101  3.0546145689e+00  4.4081899768e+00 -2.8887613651e+00  6.0916131903e+00  0.0000000000e+00 0. 9.
       21     1     1     2   102   103 -3.0546145689e+00 -4.4081899768e+00  3.5001629071e+00  6.4042134109e+00  0.0000000000e+00 0. 9.
#pdf   21   21  6.553614e-02  5.942213e-02  5.363097e+00  1.737082e+00  1.887773e+00
</event>
<event>
     4  9999  1.000000e+00  8.303192e+00  7.611166e-03  2.097143e-01
       21    -1     0     0   101   102  0.0000000000e+00  0.0000000000e+00  1.5019708609e+01  1.5019708609e+01  0.0000000000e+00 0. 9.
       21    -1     0     0   103   104  0.0000000000e+00  0.0000000000e+00 -5.0321630346e+00  5.0321630346e+00  0.0000000000e+00 0. 9.
       21     1     1     2   101   104 -7.1306498773e+00  4.2540368603e+00  2.0224085684e+00  8.5459425284e+00  0.0000000000e+00 0. 9.
       21     1     1     2   103   102  7.1306498773e+00 -4.2540368603e+00  7.9651370062e+00  1.1505929115e+01  0.0000000000e+00 0. 9.
#pdf   21   21  1.501971e-01  5.032163e-02  8.303192e+00  7.081488e-01  2.161951e+00
</event>
<event>
     4  9999  1.000000e+00  5.940194e+00  7.584102e-03  2.293708e-01
       21    -1     0     0   101   102  0.0000000000e+00  0.0000000000e+00  1.8767673155e+01  1.8767673155e+01  0.0000000000e+00 0. 9.
       21    -1     0     0   103   101  0.0000000000e+00  0.0000000000e+00 -2.5862540444e+00  2.5862540444e+00  0.0000000000e+00 0. 9.
       21     1     1     2   103   104 -1.1922255135e+00  5.8193212855e+00  2.5118067624e+00  6.4494244015e+00  0.0000000000e+00 0. 9.
       21     1     1     2   104   102  1.1922255135e+00 -5.8193212855e+00  1.3669612348e+01  1.4904502797e+01  0.0000000000e+00 0. 9.
#pdf   21   21  1.876767e-01  2.586254e-02  5.940194e+00  5.736309e-01  3.498908e+00
</event>
<event>
     4  9999  1.000000e+00  5.004054e+00  7.570317e-03  2.409349e-01
       21    -1     0     0   102   101  0.0000000000e+00  0.0000000000e+00  5.3958392252e+00  5.3958392252e+00  0.0000000000e+00 0. 9.
        1    -1     0     0   101     0  0.0000000000e+00  0.0000000000e+00 -2.0792448068e+01  2.0792448068e+01  0.0000000000e+00 0. 9.
       21     1     1     2   102   103  4.8799482856e+00 -1.1020491918e+00  3.8415078938e+00  6.3075819923e+00  0.0000000000e+00 0. 9.
        1     1     1     2   103     0 -4.8799482856e+00  1.1020491918e+00 -1.9238116737e+01  1.9880705301e+01  3.3000000000e-01 0. 9.
#pdf   21    1  5.395839e-02  2.079245e-01  5.004054e+00  2.040266e+00  3.067258e-01
</event>
<event>
     4  9999  1.000000e+00  6.148128e+00  7.586873e-03  2.271832e-01
       21    -1     0     0   102   101  0.0000000000e+00  0.0000000000e+00  5.7145262039e+01  5.7145262039e+01  0.0000000000e+00 0. 9.
       21    -1     0     0   103   102  0.0000000000e+00  0.0000000000e+00 -7.3296600607e-01  7.3296600607e-01  0.0000000000e+00 0. 9.
       21     1     1     2   104   101 -2.9330378901e+00 -5.4034031048e+00  1.9167458484e+01  2.0129355208e+01  0.0000000000e+00 0. 9.
       21     1     1     2   103   104  2.9330378901e+00  5.4034031048e+00  3.7244837549e+01  3.7748872837e+01  0.0000000000e+00 0. 9.
#pdf   21   21  5.714526e-01  7.329660e-03  6.148128e+00  2.312427e-02  7.252019e+00
</event>
<event>
     4  9999  1.000000e+00  5.368220e+00  7.575957e-03  2.360598e-01
        2    -1     0     0   101     0  0.0000000000e+00  0.0000000000e+00  6.5834825641e+00  6.5834825641e+00  0.0000000000e+00 0. 9.
        2    -1     0     0   102     0  0.0000000000e+00  0.0000000000e+00 -3.7212629097e+01  3.7212629097e+01  0.0000000000e+00 0. 9.
        2     1     1     2   102     0  2.4369252696e+00 -4.7818791548e+00  5.2507063342e+00  7.5155698406e+00  3.3000000000e-01 0. 9.
        2     1     1     2   101     0 -2.4369252696e+00  4.7818791548e+00 -3.5879852867e+01  3.6280541821e+01  3.3000000000e-01 0. 9.
#pdf    2    2  6.583483e-02  3.721263e-01  5.368220e+00  6.058924e-01  3.781302e-01
</event>
<event>
     4  9999  1.000000e+00  7.106728e+00  7.598567e-03  2.184106e-01
       21    -1     0     0   102   103  0.0000000000e+00  0.0000000000e+00  4.4646100424e+00  4.4646100424e+00  0.0000000000e+00 0. 9.
        1    -1     0     0   101     0  0.0000000000e+00  0.0000000000e+00 -3.0102937353e+01  3.0102937353e+01  0.0000000000e+00 0. 9.
       21     1     1     2   101   103 -6.5929732853e+00  2.6491174805e+00  8.3603498643e-01  7.1543046248e+00  0.0000000000e+00 0. 9.
        1     1     1     2   102     0  6.5929732853e+00 -2.6491174805e+00 -2.6474362297e+01  2.7413242771e+01  3.3000000000e-01 0. 9.
#pdf   21    1  4.464610e-02  3.010294e-01  7.106728e+00  2.383945e+00  1.974221e-01
</event>
<event>
     4  9999  1.000000e+00  6.994398e+00  7.597280e-03  2.193419e-01
       21    -1     0     0   103   102  0.0000000000e+00  0.0000000000e+00  5.5036984770e+00  5.5036984770e+00  0.0000000000e+00 0. 9.
       -1    -1     0     0     0   101  0.0000000000e+00  0.0000000000e+00 -2.3154633318e+01  2.3154633318e+01  0.0000000000e+00 0. 9.
       21     1     1     2   103   101 -3.4223994624e+00 -6.0981875520e+00  2.4213494563e+00  7.4002461236e+00  0.0000000000e+00 0. 9.
       -1     1     1     2     0   102  3.4223994624e+00  6.0981875520e+00 -2.0072284297e+01  2.1258085671e+01  3.3000000000e-01 0. 9.
#pdf   21   -1  5.503698e-02  2.315463e-01  6.994398e+00  2.008078e+00  3.268890e-02
</event>
<event>
     4  9999  1.000000e+00  5.912252e+00  7.583722e-03  2.296739e-01
       21    -1     0     0   102   103  0.0000000000e+00  0.0000000000e+00  1.1929248077e+00  1.1929248077e+00  0.0000000000e+00 0. 9.
        2    -1     0     0   101     0  0.0000000000e+00  0.0000000000e+00 -3.6649430274e+01  3.6649430274e+01  0.0000000000e+00 0. 9.
       21     1     1     2   101   103  2.2340626794e+00 -5.4699327112e+00 -2.6184041344e+01  2.6842414590e+01  0.0000000000e+00 0. 9.
        2     1     1     2   102     0 -2.2340626794e+00  5.4699327112e+00 -9.2724641226e+00  1.0999940492e+01  3.3000000000e-01 0. 9.
#pdf   21    2  1.192925e-02  3.664943e-01  5.912252e+00  5.553886e+00  3.787579e-01
</event>
<event>
     4  9999  1.000000e+00  5.819175e+00  7.582444e-03  2.306998e-01
       21    -1     0     0   102   101  0.0000000000e+00  0.0000000000e+00  1.4509163485e+00  1.4509163485e+00  0.0000000000e+00 0. 9.
       21    -1     0     0   104   103  0.0000000000e+00  0.0000000000e+00 -2.4815115183e+01  2.4815115183e+01  0.0000000000e+00 0. 9.
       21     1     1     2   104   101  3.4933171379e+00 -4.6539805427e+00 -8.4789267822e+00  1.0283724952e+01  0.0000000000e+00 0. 9.
       21     1     1     2   102   103 -3.4933171379e+00  4.6539805427e+00 -1.4885272052e+01  1.5982306579e+01  0.0000000000e+00 0. 9.
#pdf   21   21  1.450916e-02  2.481512e-01  5.819175e+00  4.962921e+00  4.051039e-01
</event>
<event>
     4  9999  1.000000e+00  5.380372e+00  7.576139e-03  2.359062e-01
       21    -1     0     0   102   101  0.0000000000e+00  0.0000000000e+00  3.4628993682e+00  3.4628993682e+00  0.0000000000e+00 0. 9.
        2    -1     0     0   101     0  0.0000000000e+00  0.0000000000e+00 -7.0823676462e+01  7.0823676462e+01  0.0000000000e+00 0. 9.
       21     1     1     2   102   103 -5.1452220981e+00 -1.5711973079e+00  1.2018756642e+00  5.5123929950e+00  0.0000000000e+00 0. 9.
        2     1     1     2   103     0  5.1452220981e+00  1.5711973079e+00 -6.8562652758e+01  6.8774182835e+01  3.3000000000e-01 0. 9.
#pdf   21    2  3.462899e-02  7.082368e-01  5.380372e+00  2.849798e+00  4.043818e-02
</event>
<event>
     4  9999  1.000000e+00  6.298966e+00  7.588827e-03  2.256669e-01
       21    -1     0     0   102   101  0.0000000000e+00  0.0000000000e+00  1.8085749826e+01  1.8085749826e+01  0.0000000000e+00 0. 9.
       21    -1     0     0   101   103  0.0000000000e+00  0.0000000000e+00 -8.4930190286e+00  8.4930190286e+00  0.0000000000e+00 0. 9.
       21     1     1     2   104   103 -6.0691398402e+00  1.6859770976e+00 -6.6486477372e+00  9.1586840707e+00  0.0000000000e+00 0. 9.
       21     1     1     2   102   104  6.0691398402e+00 -1.6859770976e+00  1.6241378535e+01  1.7420084784e+01  0.0000000000e+00 0. 9.
#pdf   21   21  1.808575e-01  8.493019e-02  6.298966e+00  5.931649e-01  1.359932e+00
</event>
<event>
     4  9999  1.000000e+00  5.036179e+00  7.570830e-03  2.404825e-01
       21    -1     0     0   102   101  0.0000000000e+00  0.0000000000e+00  1.1162639782e+00  1.1162639782e+00  0.0000000000e+00 0. 9.
       21    -1     0     0   104   103  0.0000000000e+00  0.0000000000e+00 -3.6140825466e+01  3.6140825466e+01  0.0000000000e+00 0. 9.
       21     1     1     2   104   101 -4.2742341127e+00  2.6634608661e+00 -6.1609557910e+00  7.9574164962e+00  0.0000000000e+00 0. 9.
       21     1     1     2   102   103  4.2742341127e+00 -2.6634608661e+00 -2.8863605697e+01  2.9299672948e+01  0.0000000000e+00 0. 9.
#pdf   21   21  1.116264e-02  3.614083e-01  5.036179e+00  5.559410e+00  2.301225e-01
</event>
<event>
     4  9999  1.000000e+00  5.777078e+00  7.581860e-03  2.311723e-01
        2    -1     0     0   101     0  0.0000000000e+00  0.0000000000e+00  5.8282792652e+01  5.8282792652e+01  0.0000000000e+00 0. 9.
       21    -1     0     0   102   101  0.0000000000e+00  0.0000000000e+00 -1.2275682250e+01  1.2275682250e+01  0.0000000000e+00 0. 9.
        2     1     1     2   103     0  4.0890971576e+00  4.0806095485e+00  5.7449682581e+01  5.7740341344e+01  3.3000000000e-01 0. 9.
       21     1     1     2   102   103 -4.0890971576e+00 -4.0806095485e+00 -1.1442572179e+01  1.2818133558e+01  0.0000000000e+00 0. 9.
#pdf    2   21  5.828279e-01  1.227568e-01  5.777078e+00  1.196435e-01  9.375916e-01
</event>
<event>
     4  9999  1.000000e+00  5.060032e+00  7.571210e-03  2.401495e-01
       21    -1     0     0   102   103  0.0000000000e+00  0.0000000000e+00  9.0596070939e+00  9.0596070939e+00  0.0000000000e+00 0. 9.
        2    -1     0     0   101     0  0.0000000000e+00  0.0000000000e+00 -1.3951740817e+01  1.3951740817e+01  0.0000000000e+00 0. 9.
       21     1     1     2   101   103 -3.7542999992e+00 -3.3908884908e+00  7.8267106293e+00  9.3193504343e+00  0.0000000000e+00 0. 9.
        2     1     1     2   102     0  3.7542999992e+00  3.3908884908e+00 -1.2718844352e+01  1.3691997477e+01  3.3000000000e-01 0. 9.
#pdf   21    2  9.059607e-02  1.395174e-01  5.060032e+00  1.295416e+00  6.301018e-01
</event>
<event>
     4  9999  1.000000e+00  6.619641e+00  7.592833e-03  2.226230e-01
       21    -1     0     0   101   102  0.0000000000e+00  0.0000000000e+00  1.2251487045e+01  1.2251487045e+01  0.0000000000e+00 0. 9.
       21    -1     0     0   103   104  0.0000000000e+00  0.0000000000e+00 -9.5604491710e+00  9.5604491710e+00  0.0000000000e+00 0. 9.
       21     1     1     2   101   104 -6.6194596054e+00 -4.8957703598e-02  9.9735660865e+00  1.1970449566e+01  0.0000000000e+00 0. 9.
       21     1     1     2   103   102  6.6194596054e+00  4.8957703598e-02 -7.2825282124e+00  9.8414866504e+00  0.0000000000e+00 0. 9.
#pdf   21   21  1.225149e-01  9.560449e-02  6.619641e+00  9.246895e-01  1.204434e+00
</event>
<event>
     4  9999  1.000000e+00  5.137381e+00  7.572427e-03  2.390867e-01
        1    -1     0     0   101     0  0.0000000000e+00  0.0000000000e+00  7.4803236792e+00  7.4803236792e+00  0.0000000000e+00 0. 9.
        2    -1     0     0   102     0  0.0000000000e+00  0.0000000000e+00 -1.0135993809e+01  1.0135993809e+01  0.0000000000e+00 0. 9.
        1     1     1     2   102     0 -1.1045819768e-01 -5.1325013913e+00  5.7788235883e+00  7.7368258097e+00  3.3000000000e-01 0. 9.
        2     1     1     2   101     0  1.1045819768e-01  5.1325013913e+00 -8.4344937183e+00  9.8794916786e+00  3.3000000000e-01 0. 9.
#pdf    1    2  7.480324e-02  1.013599e-01  5.137381e+00  4.113561e-01  6.280720e-01
</event>
<event>
     4  9999  1.000000e+00  6.067205e+00  7.585806e-03  2.280207e-01
       21    -1     0     0   102   103  0.0000000000e+00  0.0000000000e+00  5.2983119948e+00  5.2983119948e+00  0.0000000000e+00 0. 9.
        1    -1     0     0   101     0  0.0000000000e+00  0.0000000000e+00 -7.0181670881e+00  7.0181670881e+00  0.0000000000e+00 0. 9.
       21     1     1     2   101   103  2.7435500369e-01  6.0565519106e+00 -2.4258636377e-01  6.0676140169e+00  0.0000000000e+00 0. 9.
        1     1     1     2   102     0 -2.7435500369e-01 -6.0565519106e+00 -1.4772687296e+00  6.2488650660e+00  3.3000000000e-01 0. 9.
#pdf   21    1  5.298312e-02  7.018167e-02  6.067205e+00  2.074424e+00  4.135636e-01
</event>
<event>
     4  9999  1.000000e+00  7.455122e+00  7.602438e-03  2.156599e-01
       21    -1     0     0   102   103  0.0000000000e+00  0.0000000000e+00  2.8347582687e+01  2.8347582687e+01  0.0000000000e+00 0. 9.
        1    -1     0     0   101     0  0.0000000000e+00  0.0000000000e+00 -3.5734870739e+00  3.5734870739e+00  0.0000000000e+00 0. 9.
       21     1     1     2   101   103 -7.2607612494e+00  1.6823532509e+00  2.3103449778e+01  2.4275880170e+01  0.0000000000e+00 0. 9.
        1     1     1     2   102     0  7.2607612494e+00 -1.6823532509e+00  1.6706458356e+00  7.6451895914e+00  3.3000000000e-01 0. 9.
#pdf   21    1  2.834758e-01  3.573487e-02  7.455122e+00  3.071209e-01  4.375495e-01
</event>
<event>
     4  9999  1.000000e+00  5.211111e+00  7.573571e-03  2.380969e-01
       21    -1     0     0   102   101  0.0000000000e+00  0.0000000000e+00  3.9218496875e+00  3.9218496875e+00  0.0000000000e+00 0. 9.
       21    -1     0     0   103   102  0.0000000000e+00  0.0000000000e+00 -6.9933450492e+00  6.9933450492e+00  0.0000000000e+00 0. 9.
       21     1     1     2   104   101 -7.6074390735e-01  5.1552834287e+00 -9.9307992054e-01  5.3048926710e+00  0.0000000000e+00 0. 9.
       21     1     1     2   103   104  7.6074390735e-01 -5.1552834287e+00 -2.0784154411e+00  5.6103020657e+00  0.0000000000e+00 0. 9.
#pdf   21   21  3.921850e-02  6.993345e-02  5.211111e+00  2.602749e+00  1.642031e+00
</event>
<event>
     4  9999  1.000000e+00  1.115624e+01  7.635668e-03  1.949780e-01
       21    -1     0     0   101   102  0.0000000000e+00  0.0000000000e+00  9.1699659216e+00  9.1699659216e+00  0.0000000000e+00 0. 9.
       21    -1     0     0   103   104  0.0000000000e+00  0.0000000000e+00 -3.6570486246e+01  3.6570486246e+01  0.0000000000e+00 0. 9.
       21     1     1     2   101   104  5.5858452490e+00  9.6571187451e+00 -3.1836518008e+01  3.3734633368e+01  0.0000000000e+00 0. 9.
       21     1     1     2   103   102 -5.5858452490e+00 -9.6571187451e+00  4.4359976834e+00  1.2005818800e+01  0.0000000000e+00 0. 9.
#pdf   21   21  9.169966e-02  3.657049e-01  1.115624e+01  1.202254e+00  1.486978e-01
</event>
<event>
     4  9999  1.000000e+00  5.025076e+00  7.570653e-03  2.406383e-01
        2    -1     0     0   101     0  0.0000000000e+00  0.0000000000e+00  1.2496517057e+01  1.2496517057e+01  0.0000000000e+00 0. 9.
       21    -1     0     0   102   103  0.0000000000e+00  0.0000000000e+00 -2.0207250681e+00  2.0207250681e+00  0.0000000000e+00 0. 9.
        2     1     1     2   102     0 -2.6524458086e+00 -4.2616317165e+00  5.2798269813e+00  7.2926296085e+00  3.3000000000e-01 0. 9.
       21     1     1     2   101   103  2.6524458086e+00  4.2616317165e+00  5.1959650077e+00  7.2246125166e+00  0.0000000000e+00 0. 9.
#pdf    2   21  1.249652e-01  2.020725e-02  5.025076e+00  6.319676e-01  3.994451e+00
</event>
<event>
     4  9999  1.000000e+00  5.684692e+00  7.580563e-03  2.322283e-01
       21    -1     0     0   101   102  0.0000000000e+00  0.0000000000e+00  4.9134805722e+00  4.9134805722e+00  0.0000000000e+00 0. 9.
       21    -1     0     0   103   104  0.0000000000e+00  0.0000000000e+00 -9.1665958514e+00  9.1665958514e+00  0.0000000000e+00 0. 9.
       21     1     1     2   101   104  4.9666853870e+00  2.7654582167e+00  1.6153326130e+00  5.9097396163e+00  0.0000000000e+00 0. 9.
       21     1     1     2   103   102 -4.9666853870e+00 -2.7654582167e+00 -5.8684478922e+00  8.1703368073e+00  0.0000000000e+00 0. 9.
#pdf   21   21  4.913481e-02  9.166596e-02  5.684692e+00  2.203014e+00  1.271209e+00
</event>
<event>
     4  9999  1.000000e+00  6.684608e+00  7.593621e-03  2.220340e-01
       21    -1     0     0   102   101  0.0000000000e+00  0.0000000000e+00  1.3967782964e+01  1.3967782964e+01  0.0000000000e+00 0. 9.
        2    -1     0     0   101     0  0.0000000000e+00  0.0000000000e+00 -2.6270743383e+01  2.6270743383e+01  0.0000000000e+00 0. 9.
       21     1     1     2   102   103  5.8026436580e+00 -3.3176322784e+00  1.2702093338e+01  1.4353415361e+01  0.0000000000e+00 0. 9.
        2     1     1     2   103     0 -5.8026436580e+00  3.3176322784e+00 -2.5005053757e+01  2.5885110985e+01  3.3000000000e-01 0. 9.
#pdf   21    2  1.396778e-01  2.627074e-01  6.684608e+00  7.963639e-01  5.124929e-01
</event>
<event>
     4  9999  1.000000e+00  5.163344e+00  7.572832e-03  2.387356e-01
       21    -1     0     0   102   101  0.0000000000e+00  0.0000000000e+00  1.9216522006e+00  1.9216522006e+00  0.0000000000e+00 0. 9.
        2    -1     0     0   101     0  0.0000000000e+00  0.0000000000e+00 -3.4648899561e+01  3.4648899561e+01  0.0000000000e+00 0. 9.
       21     1     1     2   102   103 -3.7013817332e+00  3.5969567863e+00 -2.2037722064e+00  5.6120349959e+00  0.0000000000e+00 0. 9.
        2     1     1     2   103     0  3.7013817332e+00 -3.5969567863e+00 -3.0523475154e+01  3.0958516766e+01  3.3000000000e-01 0. 9.
#pdf   21    2  1.921652e-02  3.464890e-01  5.163344e+00  4.133616e+00  4.179017e-01
</event>
<event>
     4  9999  1.000000e+00  5.364388e+00  7.575900e-03  2.361084e-01
       21    -1     0     0   101   102  0.0000000000e+00  0.0000000000e+00  1.7312338057e+00  1.7312338057e+00  0.0000000000e+00 0. 9.
       21    -1     0     0   103   104  0.0000000000e+00  0.0000000000e+00 -4.2882932455e+01  4.2882932455e+01  0.0000000000e+00 0. 9.
       21     1     1     2   101   104  3.2966712491e+00  4.2318580377e+00 -3.1194301010e+00  6.2054417999e+00  0.0000000000e+00 0. 9.
       21     1     1     2   103   102 -3.2966712491e+00 -4.2318580377e+00 -3.8032268548e+01  3.8408724461e+01  0.0000000000e+00 0. 9.
#pdf   21   21  1.731234e-02  4.288293e-01  5.364388e+00  4.423515e+00  1.341749e-01
</event>
<event>
     4  9999  1.000000e+00  5.878016e+00  7.583254e-03  2.300483e-01
       21    -1     0     0   101   102  0.0000000000e+00  0.0000000000e+00  1.0616663887e+00  1.0616663887e+00  0.0000000000e+00 0. 9.
       21    -1     0     0   103   104  0.0000000000e+00  0.0000000000e+00 -3.3771973504e+01  3.3771973504e+01  0.0000000000e+00 0. 9.
       21     1     1     2   101   104 -5.1804871957e+00 -2.7773412294e+00 -1.3034285128e+01  1.4298379652e+01  0.0000000000e+00 0. 9.
       21     1     1     2   103   102  5.1804871957e+00  2.7773412294e+00 -1.9676021988e+01  2.0535260241e+01  0.0000000000e+00 0. 9.
#pdf   21   21  1.061666e-02  3.377197e-01  5.878016e+00  5.910694e+00  2.460812e-01
</event>
<event>
     4  9999  1.000000e+00  5.228656e+00  7.573841e-03  2.378646e-01
       21    -1     0     0   101   102  0.0000000000e+00  0.0000000000e+00  2.7978076858e+00  2.7978076858e+00  0.0000000000e+00 0. 9.
       -1    -1     0     0     0   101  0.0000000000e+00  0.0000000000e+00 -3.3572072960e+01  3.3572072960e+01  0.0000000000e+00 0. 9.
       21     1     1     2   103   102 -4.4522842904e+00  2.7386414477e+00 -7.5661083358e-02  5.2276875367e+00  0.0000000000e+00 0. 9.
       -1     1     1     2     0   103  4.4522842904e+00 -2.7386414477e+00 -3.0698604191e+01  3.1142193109e+01  3.3000000000e-01 0. 9.
#pdf   21   -1  2.797808e-02  3.357207e-01  5.228656e+00  3.281186e+00  1.311716e-02
</event>
<event>
     4  9999  1.000000e+00  5.181914e+00  7.573120e-03  2.384862e-01
       21    -1     0     0   102   101  0.0000000000e+00  0.0000000000e+00  4.8739243472e+01  4.8739243472e+01  0.0000000000e+00 0. 9.
       21    -1     0     0   104   103  0.0000000000e+00  0.0000000000e+00 -8.6840717692e+00  8.6840717692e+00  0.0000000000e+00 0. 9.
       21     1     1     2   104   101  7.8702000193e-01 -5.1218001073e+00  4.7813555535e+01  4.8093537297e+01  0.0000000000e+00 0. 9.
       21     1     1     2   102   103 -7.8702000193e-01  5.1218001073e+00 -7.7583838317e+00  9.3297779450e+00  0.0000000000e+00 0. 9.
#pdf   21   21  4.873924e-01  8.684072e-02  5.181914e+00  7.785915e-02  1.347180e+00
</event>
<event>
     4  9999  1.000000e+00  7.187863e+00  7.599485e-03  2.177518e-01
       21    -1     0     0   102   101  0.0000000000e+00  0.0000000000e+00  2.5778917869e+00  2.5778917869e+00  0.0000000000e+00 0. 9.
       21    -1     0     0   104   103  0.0000000000e+00  0.0000000000e+00 -2.7108172971e+01  2.7108172971e+01  0.0000000000e+00 0. 9.
       21     1     1     2   104   101 -5.4613966586e+00 -4.6731702460e+00 -4.6868127769e+00  8.5808850136e+00  0.0000000000e+00 0. 9.
       21     1     1     2   102   103  5.4613966586e+00  4.6731702460e+00 -1.9843468407e+01  2.1105179744e+01  0.0000000000e+00 0. 9.
#pdf   21   21  2.577892e-02  2.710817e-01  7.187863e+00  3.565847e+00  3.340930e-01
</event>
<event>
     4  9999  1.000000e+00  6.605943e+00  7.592665e-03  2.227483e-01
        2    -1     0     0   101     0  0.0000000000e+00  0.0000000000e+00  3.8779887755e+01  3.8779887755e+01  0.0000000000e+00 0. 9.
       21    -1     0     0   102   103  0.0000000000e+00  0.0000000000e+00 -1.2900001871e+00  1.2900001871e+00  0.0000000000e+00 0. 9.
        2     1     1     2   102     0  1.4291539824e+00 -6.4458144064e+00  2.5910340644e+01  2.6740337633e+01  3.3000000000e-01 0. 9.
       21     1     1     2   101   103 -1.4291539824e+00  6.4458144064e+00  1.1579546924e+01  1.3329550309e+01  0.0000000000e+00 0. 9.
#pdf    2   21  3.877989e-01  1.290000e-02  6.605943e+00  3.403372e-01  5.425993e+00
</event>
<event>
     4  9999  1.000000e+00  7.914267e+00  7.607277e-03  2.123207e-01
        1    -1     0     0   101     0  0.0000000000e+00  0.0000000000e+00  1.0172914227e+01  1.0172914227e+01  0.0000000000e+00 0. 9.
        2    -1     0     0   102     0  0.0000000000e+00  0.0000000000e+00 -6.9967147167e+00  6.9967147167e+00  0.0000000000e+00 0. 9.
        1     1     1     2   102     0 -6.6380253014e+00 -4.2984188663e+00 -1.3835130561e+00  8.0350975743e+00  3.3000000000e-01 0. 9.
        2     1     1     2   101     0  6.6380253014e+00  4.2984188663e+00  4.5597125666e+00  9.1345313696e+00  3.3000000000e-01 0. 9.
#pdf    1    2  1.017291e-01  6.996715e-02  7.914267e+00  3.915911e-01  6.133243e-01
</event>
<event>
     4  9999  1.000000e+00  5.558569e+00  7.578758e-03  2.337141e-01
       21    -1     0     0   102   101  0.0000000000e+00  0.0000000000e+00  6.6451614065e-01  6.6451614065e-01  0.0000000000e+00 0. 9.
        1    -1     0     0   101     0  0.0000000000e+00  0.0000000000e+00 -5.4052402589e+01  5.4052402589e+01  0.0000000000e+00 0. 9.
       21     1     1     2   102   103 -1.7318096149e+00 -5.2774715895e+00 -1.6452618799e+01  1.7364893788e+01  0.0000000000e+00 0. 9.
        1     1     1     2   103     0  1.7318096149e+00  5.2774715895e+00 -3.6935267649e+01  3.7352024941e+01  3.3000000000e-01 0. 9.
#pdf   21    1  6.645161e-03  5.405240e-01  5.558569e+00  7.423528e+00  4.565310e-02
</event>
<event>
     4  9999  1.000000e+00  5.027586e+00  7.570693e-03  2.406030e-01
       21    -1     0     0   101   102  0.0000000000e+00  0.0000000000e+00  6.5639074166e+00  6.5639074166e+00  0.0000000000e+00 0. 9.
       21    -1     0     0   103   101  0.0000000000e+00  0.0000000000e+00 -5.6106656114e+00  5.6106656114e+00  0.0000000000e+00 0. 9.
       21     1     1     2   103   104 -2.1350206774e+00  4.5517368994e+00 -2.9325607938e+00  5.8203552214e+00  0.0000000000e+00 0. 9.
       21     1     1     2   104   102  2.1350206774e+00 -4.5517368994e+00  3.8858025991e+00  6.3542178066e+00  0.0000000000e+00 0. 9.
#pdf   21   21  6.563907e-02  5.610666e-02  5.027586e+00  1.735660e+00  1.977543e+00
</event>
<event>
     4  9999  1.000000e+00  6.077609e+00  7.585944e-03  2.279120e-01
       21    -1     0     0   102   101  0.0000000000e+00  0.0000000000e+00  9.8268420390e+00  9.8268420390e+00  0.0000000000e+00 0. 9.
       21    -1     0     0   101   103  0.0000000000e+00  0.0000000000e+00 -8.8436299641e+00  8.8436299641e+00  0.0000000000e+00 0. 9.
       21     1     1     2   104   103  6.0742757039e+00  2.0125183314e-01 -6.5869943536e+00  8.9624674193e+00  0.0000000000e+00 0. 9.
       21     1     1     2   102   104 -6.0742757039e+00 -2.0125183314e-01  7.5702064286e+00  9.7080045838e+00  0.0000000000e+00 0. 9.
#pdf   21   21  9.826842e-02  8.843630e-02  6.077609e+00  1.179551e+00  1.310448e+00
</event>
<event>
     4  9999  1.000000e+00  5.376260e+00  7.576078e-03  2.359581e-01
       21    -1     0     0   101   102  0.0000000000e+00  0.0000000000e+00  4.8148887683e+00  4.8148887683e+00  0.0000000000e+00 0. 9.
       21    -1     0     0   103   104  0.0000000000e+00  0.0000000000e+00 -1.5665932060e+01  1.5665932060e+01  0.0000000000e+00 0. 9.
       21     1     1     2   101   104  2.7181132357e+00  4.6385379019e+00  2.6169929415e+00  5.9793666458e+00  0.0000000000e+00 0. 9.
       21     1     1     2   103   102 -2.7181132357e+00 -4.6385379019e+00 -1.3468036234e+01  1.4501454183e+01  0.0000000000e+00 0. 9.
#pdf   21   21  4.814889e-02  1.566593e-01  5.376260e+00  2.236066e+00  7.213718e-01
</event>
<event>
     4  9999  1.000000e+00  6.981557e+00  7.597131e-03  2.194498e-01
       21    -1     0     0   102   101  0.0000000000e+00  0.0000000000e+00  2.0718034675e+00  2.0718034675e+00  0.0000000000e+00 0. 9.
       21    -1     0     0   104   103  0.0000000000e+00  0.0000000000e+00 -2.7742067811e+01  2.7742067811e+01  0.0000000000e+00 0. 9.
       21     1     1     2   104   101 -5.1131493786e+00 -4.7537182478e+00 -7.0241339258e+00  9.9035645681e+00  0.0000000000e+00 0. 9.
       21     1     1     2   102   103  5.1131493786e+00  4.7537182478e+00 -1.8646130418e+01  1.9910306710e+01  0.0000000000e+00 0. 9.
#pdf   21   21  2.071803e-02  2.774207e-01  6.981557e+00  4.106301e+00  3.254110e-01
</event>
<event>
     4  9999  1.000000e+00  5.349428e+00  7.575676e-03  2.362985e-01
        2    -1     0     0   101     0  0.0000000000e+00  0.0000000000e+00  3.2086941743e+01  3.2086941743e+01  0.0000000000e+00 0. 9.
       -1    -1     0     0     0   101  0.0000000000e+00  0.0000000000e+00 -8.9790196592e-01  8.9790196592e-01  0.0000000000e+00 0. 9.
        2     1     1     2   102     0 -5.2549877669e+00  9.4515536410e-01  1.4241833128e+01  1.5213379833e+01  3.3000000000e-01 0. 9.
       -1     1     1     2     0   102  5.2549877669e+00 -9.4515536410e-01  1.6947206649e+01  1.7771463876e+01  3.3000000000e-01 0. 9.
#pdf    2   -1  3.208694e-01  8.979020e-03  5.349428e+00  4.511180e-01  3.950633e-01
</event>
<event>
     4  9999  1.000000e+00  7.259275e+00  7.600285e-03  2.171813e-01
        2    -1     0     0   101     0  0.0000000000e+00  0.0000000000e+00  9.2196067045e+00  9.2196067045e+00  0.0000000000e+00 0. 9.
       21    -1     0     0   102   101  0.0000000000e+00  0.0000000000e+00 -9.5024884241e+00  9.5024884241e+00  0.0000000000e+00 0. 9.
        2     1     1     2   103     0 -4.6396290219e+00  5.5801591866e+00  5.7660017629e+00  9.2746973179e+00  3.3000000000e-01 0. 9.
       21     1     1     2   102   103  4.6396290219e+00 -5.5801591866e+00 -6.0488834825e+00  9.4473978107e+00  0.0000000000e+00 0. 9.
#pdf    2   21  9.219607e-02  9.502488e-02  7.259275e+00  6.230142e-01  1.202463e+00
</event>
<event>
     4  9999  1.000000e+00  5.063828e+00  7.571270e-03  2.400967e-01
       21    -1     0     0   101   102  0.0000000000e+00  0.0000000000e+00  1.5257468956e+01  1.5257468956e+01  0.0000000000e+00 0. 9.
       21    -1     0     0   102   103  0.0000000000e+00  0.0000000000e+00 -5.0371219706e+00  5.0371219706e+00  0.0000000000e+00 0. 9.
       21     1     1     2   101   104  1.6346624574e+00 -4.7927268513e+00  1.3393429132e+01  1.4318739328e+01  0.0000000000e+00 0. 9.
       21     1     1     2   104   103 -1.6346624574e+00  4.7927268513e+00 -3.1730821467e+00  5.9758515988e+00  0.0000000000e+00 0. 9.
#pdf   21   21  1.525747e-01  5.037122e-02  5.063828e+00  7.496170e-01  2.154527e+00
</event>
<event>
     4  9999  1.000000e+00  6.575737e+00  7.592295e-03  2.230262e-01
       -1    -1     0     0     0   101  0.0000000000e+00  0.0000000000e+00  4.6931776149e+01  4.6931776149e+01  0.0000000000e+00 0. 9.
       21    -1     0     0   101   102  0.0000000000e+00  0.0000000000e+00 -3.8192052436e+00  3.8192052436e+00  0.0000000000e+00 0. 9.
       -1     1     1     2     0   103  5.3200398300e+00  3.8632055993e+00  4.3659991729e+01  4.4153493169e+01  3.3000000000e-01 0. 9.
       21     1     1     2   103   102 -5.3200398300e+00 -3.8632055993e+00 -5.4742082351e-01  6.5974882231e+00  0.0000000000e+00 0. 9.
#pdf   -1   21  4.693178e-01  3.819205e-02  6.575737e+00  2.729687e-03  2.683876e+00
</event>
<event>
     4  9999  1.000000e+00  5.636702e+00  7.579881e-03  2.327875e-01
       -2    -1     0     0     0   101  0.0000000000e+00  0.0000000000e+00  2.7036872352e+01  2.7036872352e+01  0.0000000000e+00 0. 9.
       21    -1     0     0   101   102  0.0000000000e+00  0.0000000000e+00 -2.0863758785e+00  2.0863758785e+00  0.0000000000e+00 0. 9.
       -2     1     1     2     0   103  4.4983140259e+00 -3.3921844228e+00  2.2099975958e+01  2.2809199494e+01  3.3000000000e-01 0. 9.
       21     1     1     2   103   102 -4.4983140259e+00  3.3921844228e+00  2.8505205157e+00  6.3140487363e+00  0.0000000000e+00 0. 9.
#pdf   -2   21  2.703687e-01  2.086376e-02  5.636702e+00  1.746998e-02  3.985715e+00
</event>
<event>
     4  9999  1.000000e+00  9.290479e+00  7.620289e-03  2.038536e-01
       21    -1     0     0   102   101  0.0000000000e+00  0.0000000000e+00  1.5607651439e+01  1.5607651439e+01  0.0000000000e+00 0. 9.
       21    -1     0     0   104   103  0.0000000000e+00  0.0000000000e+00 -8.2331237784e+00  8.2331237784e+00  0.0000000000e+00 0. 9.
       21     1     1     2   104   101  8.4453788264e+00  3.8715091536e+00 -3.1428376139e+00  9.8076722475e+00  0.0000000000e+00 0. 9.
       21     1     1     2   102   103 -8.4453788264e+00 -3.8715091536e+00  1.0517365275e+01  1.4033102970e+01  0.0000000000e+00 0. 9.
#pdf   21   21  1.560765e-01  8.233124e-02  9.290479e+00  6.637829e-01  1.365037e+00
</event>
<event>
     4  9999  1.000000e+00  1.014636e+01  7.627655e-03  1.994810e-01
        2    -1     0     0   101     0  0.0000000000e+00  0.0000000000e+00  1.4769502768e+01  1.4769502768e+01  0.0000000000e+00 0. 9.
       21    -1     0     0   102   103  0.0000000000e+00  0.0000000000e+00 -7.2824231990e+00  7.2824231990e+00  0.0000000000e+00 0. 9.
        2     1     1     2   102     0  6.6002942652e+00  7.7027663274e+00  1.4625859688e+00  1.0254001716e+01  3.3000000000e-01 0. 9.
       21     1     1     2   101   103 -6.6002942652e+00 -7.7027663274e+00  6.0244935998e+00  1.1797924250e+01  0.0000000000e+00 0. 9.
#pdf    2   21  1.476950e-01  7.282423e-02  1.014636e+01  6.050946e-01  1.533291e+00
</event>
<event>
     4  9999  1.000000e+00  5.237670e+00  7.573980e-03  2.377458e-01
       -2    -1     0     0     0   101  0.0000000000e+00  0.0000000000e+00  7.8786967764e+00  7.8786967764e+00  0.0000000000e+00 0. 9.
       21    -1     0     0   101   102  0.0000000000e+00  0.0000000000e+00 -4.2652174650e+00  4.2652174650e+00  0.0000000000e+00 0. 9.
       -2     1     1     2     0   103 -5.0305937760e+00  1.4428714426e+00  4.4081396640e+00  6.8504997654e+00  3.3000000000e-01 0. 9.
       21     1     1     2   103   102  5.0305937760e+00 -1.4428714426e+00 -7.9466035258e-01  5.2934144760e+00  0.0000000000e+00 0. 9.
#pdf   -2   21  7.878697e-02  4.265217e-02  5.237670e+00  9.589387e-02  2.448531e+00
</event>
<event>
     4  9999  1.000000e+00  5.477219e+00  7.577573e-03  2.347009e-01
       21    -1     0     0   102   103  0.0000000000e+00  0.0000000000e+00  1.7684676620e+01  1.7684676620e+01  0.0000000000e+00 0. 9.
        2    -1     0     0   101     0  0.0000000000e+00  0.0000000000e+00 -2.2166177038e+01  2.2166177038e+01  0.0000000000e+00 0. 9.
       21     1     1     2   101   103 -2.2299071100e+00 -5.0023265521e+00  1.6905881091e+01  1.7770891146e+01  0.0000000000e+00 0. 9.
        2     1     1     2   102     0  2.2299071100e+00  5.0023265521e+00 -2.1387381510e+01  2.2079962512e+01  3.3000000000e-01 0. 9.
#pdf   21    2  1.768468e-01  2.216618e-01  5.477219e+00  6.255201e-01  5.726041e-01
</event>
<event>
     4  9999  1.000000e+00  6.175152e+00  7.587227e-03  2.269073e-01
       21    -1     0     0   102   103  0.0000000000e+00  0.0000000000e+00  3.7054204146e+00  3.7054204146e+00  0.0000000000e+00 0. 9.
        1    -1     0     0   101     0  0.0000000000e+00  0.0000000000e+00 -1.1328111507e+01  1.1328111507e+01  0.0000000000e+00 0. 9.
       21     1     1     2   101   103  2.4308221720e+00  5.6722267665e+00 -1.5359644088e+00  6.3594213249e+00  0.0000000000e+00 0. 9.
        1     1     1     2   102     0 -2.4308221720e+00 -5.6722267665e+00 -6.0867266834e+00  8.6741105966e+00  3.3000000000e-01 0. 9.
#pdf   21    1  3.705420e-02  1.132811e-01  6.175152e+00  2.736407e+00  3.868693e-01
</event>
<event>
     4  9999  1.000000e+00  5.346347e+00  7.575629e-03  2.363377e-01
       21    -1     0     0   101   102  0.0000000000e+00  0.0000000000e+00  9.6752682722e+00  9.6752682722e+00  0.0000000000e+00 0. 9.
       21    -1     0     0   103   104  0.0000000000e+00  0.0000000000e+00 -1.2635899830e+01  1.2635899830e+01  0.0000000000e+00 0. 9.
       21     1     1     2   101   104 -4.5163154056e+00  2.8611742883e+00  8.2844831261e+00  9.8598216930e+00  0.0000000000e+00 0. 9.
       21     1     1     2   103   102  4.5163154056e+00 -2.8611742883e+00 -1.1245114684e+01  1.2451346410e+01  0.0000000000e+00 0. 9.
#pdf   21   21  9.675268e-02  1.263590e-01  5.346347e+00  1.210662e+00  9.167383e-01
</event>
<event>
     4  9999  1.000000e+00  5.377302e+00  7.576093e-03  2.359449e-01
       21    -1     0     0   101   102  0.0000000000e+00  0.0000000000e+00  1.2099904166e+01  1.2099904166e+01  0.0000000000e+00 0. 9.
       21    -1     0     0   103   104  0.0000000000e+00  0.0000000000e+00 -2.9067347353e+00  2.9067347353e+00  0.0000000000e+00 0. 9.
       21     1     1     2   101   104 -5.2323172228e+00 -1.2402536461e+00  1.4321032486e+00  5.5647365024e+00  0.0000000000e+00 0. 9.
       21     1     1     2   103   102  5.2323172228e+00  1.2402536461e+00  7.7610661819e+00  9.4419023987e+00  0.0000000000e+00 0. 9.
#pdf   21   21  1.209990e-01  2.906735e-02  5.377302e+00  9.601787e-01  3.209974e+00
</event>
<event>
     4  9999  1.000000e+00  6.061027e+00  7.585724e-03  2.280853e-01
       21    -1     0     0   102   101  0.0000000000e+00  0.0000000000e+00  5.6032493674e+00  5.6032493674e+00  0.0000000000e+00 0. 9.
        1    -1     0     0   101     0  0.0000000000e+00  0.0000000000e+00 -1.2347353619e+01  1.2347353619e+01  0.0000000000e+00 0. 9.
       21     1     1     2   102   103  4.5319836402e+00 -4.0209776781e+00  2.7735913305e+00  6.6633284529e+00  0.0000000000e+00 0. 9.
        1     1     1     2   103     0 -4.5319836402e+00  4.0209776781e+00 -9.5176955825e+00  1.1287274534e+01  3.3000000000e-01 0. 9.
#pdf   21    1  5.603249e-02  1.234735e-01  6.061027e+00  1.980722e+00  3.794442e-01
</event>
<event>
     4  9999  1.000000e+00  5.201458e+00  7.573423e-03  2.382252e-01
       21    -1     0     0   102   103  0.0000000000e+00  0.0000000000e+00  3.2431637787e+00  3.2431637787e+00  0.0000000000e+00 0. 9.
        3    -1     0     0   101     0  0.0000000000e+00  0.0000000000e+00 -8.3422461968e+00  8.3422461968e+00  0.0000000000e+00 0. 9.
       21     1     1     2   101   103 -4.4678564243e+00 -2.6398052097e+00 -2.5323762504e+00  5.7743607479e+00  0.0000000000e+00 0. 9.
        3     1     1     2   102     0  4.4678564243e+00  2.6398052097e+00 -2.5667061678e+00  5.8110492276e+00  5.0000000000e-01 0. 9.
#pdf   21    3  3.243164e-02  8.342246e-02  5.201458e+00  2.972306e+00  4.137584e-02
</event>
<event>
     4  9999  1.000000e+00  6.716905e+00  7.594010e-03  2.217444e-01
       21    -1     0     0   102   103  0.0000000000e+00  0.0000000000e+00  1.2268513010e+01  1.2268513010e+01  0.0000000000e+00 0. 9.
        2    -1     0     0   101     0  0.0000000000e+00  0.0000000000e+00 -1.4627267465e+01  1.4627267465e+01  0.0000000000e+00 0. 9.
       21     1     1     2   101   103 -3.3909410273e+00  5.7969509246e+00  1.0454295347e+01  1.2425595047e+01  0.0000000000e+00 0. 9.
        2     1     1     2   102     0  3.3909410273e+00 -5.7969509246e+00 -1.2813049802e+01  1.4470185428e+01  3.3000000000e-01 0. 9.
#pdf   21    2  1.226851e-01  1.462727e-01  6.716905e+00  9.216483e-01  6.192100e-01
</event>
<event>
     4  9999  1.000000e+00  5.494826e+00  7.577831e-03  2.344854e-01
       21    -1     0     0   102   101  0.0000000000e+00  0.0000000000e+00  1.8384405953e+00  1.8384405953e+00  0.0000000000e+00 0. 9.
       21    -1     0     0   104   103  0.0000000000e+00  0.0000000000e+00 -2.4066054946e+01  2.4066054946e+01  0.0000000000e+00 0. 9.
       21     1     1     2   104   101  7.6172843596e-01  5.4417718163e+00 -1.8412918515e+01  1.9215324066e+01  0.0000000000e+00 0. 9.
       21     1     1     2   102   103 -7.6172843596e-01 -5.4417718163e+00 -3.8146958359e+00  6.6891714757e+00  0.0000000000e+00 0. 9.
#pdf   21   21  1.838441e-02  2.406605e-01  5.494826e+00  4.286943e+00  4.284719e-01
</event>
<event>
     4  9999  1.000000e+00  5.782406e+00  7.581934e-03  2.311122e-01
       -3    -1     0     0     0   101  0.0000000000e+00  0.0000000000e+00  8.9562717300e-01  8.9562717300e-01  0.0000000000e+00 0. 9.
        2    -1     0     0   101     0  0.0000000000e+00  0.0000000000e+00 -4.2204014123e+01  4.2204014123e+01  0.0000000000e+00 0. 9.
       -3     1     1     2     0   102  2.9658278508e+00  4.9478654267e+00 -1.3369566371e+01  1.4569585171e+01  5.0000000000e-01 0. 9.
        2     1     1     2   102     0 -2.9658278508e+00 -4.9478654267e+00 -2.7938820579e+01  2.8530056125e+01  3.3000000000e-01 0. 9.
#pdf   -3    2  8.956272e-03  4.220401e-01  5.782406e+00  1.879262e-01  3.026570e-01
</event>
<event>
     4  9999  1.000000e+00  5.404853e+00  7.576504e-03  2.355983e-01
       21    -1     0     0   102   101  0.0000000000e+00  0.0000000000e+00  1.2842102235e+01  1.2842102235e+01  0.0000000000e+00 0. 9.
       21    -1     0     0   101   103  0.0000000000e+00  0.0000000000e+00 -6.6617643025e+00  6.6617643025e+00  0.0000000000e+00 0. 9.
       21     1     1     2   104   103  1.4859376323e+00  5.1965779000e+00  1.1003897569e+01  1.2259616398e+01  0.0000000000e+00 0. 9.
       21     1     1     2   102   104 -1.4859376323e+00 -5.1965779000e+00 -4.8235596364e+00  7.2442501395e+00  0.0000000000e+00 0. 9.
#pdf   21   21  1.284210e-01  6.661764e-02  5.404853e+00  8.996148e-01  1.712470e+00
</event>
<event>
     4  9999  1.000000e+00  8.051253e+00  7.608668e-03  2.113810e-01
       21    -1     0     0   102   101  0.0000000000e+00  0.0000000000e+00  2.7287809333e+00  2.7287809333e+00  0.0000000000e+00 0. 9.
        2    -1     0     0   101     0  0.0000000000e+00  0.0000000000e+00 -4.6991868040e+01  4.6991868040e+01  0.0000000000e+00 0. 9.
       21     1     1     2   102   103 -6.3253411416e+00 -4.9784754627e+00 -4.6489008755e+00  9.2955601144e+00  0.0000000000e+00 0. 9.
        2     1     1     2   103     0  6.3253411416e+00  4.9784754627e+00 -3.9614186232e+01  4.0425088859e+01  3.3000000000e-01 0. 9.
#pdf   21    2  2.728781e-02  4.699187e-01  8.051253e+00  3.457073e+00  2.202178e-01
</event>
<event>
     4  9999  1.000000e+00  5.068438e+00  7.571343e-03  2.400327e-01
       21    -1     0     0   102   101  0.0000000000e+00  0.0000000000e+00  4.7675447412e+00  4.7675447412e+00  0.0000000000e+00 0. 9.
       21    -1     0     0   101   103  0.0000000000e+00  0.0000000000e+00 -3.7755927150e+01  3.7755927150e+01  0.0000000000e+00 0. 9.
       21     1     1     2   104   103  4.7092269212e+00  1.8740998666e+00 -3.6180370267e+01  3.6533659291e+01  0.0000000000e+00 0. 9.
       21     1     1     2   102   104 -4.7092269212e+00 -1.8740998666e+00  3.1919878580e+00  5.9898126007e+00  0.0000000000e+00 0. 9.
#pdf   21   21  4.767545e-02  3.775593e-01  5.068438e+00  2.248058e+00  2.064391e-01
</event>
<event>
     4  9999  1.000000e+00  7.740787e+00  7.605482e-03  2.135469e-01
        2    -1     0     0   101     0  0.0000000000e+00  0.0000000000e+00  1.4329244693e+01  1.4329244693e+01  0.0000000000e+00 0. 9.
        2    -1     0     0   102     0  0.0000000000e+00  0.0000000000e+00 -1.4563129863e+01  1.4563129863e+01  0.0000000000e+00 0. 9.
        2     1     1     2   102     0 -2.1005095139e+00  7.4482460231e+00  1.2076948752e+01  1.4347477137e+01  3.3000000000e-01 0. 9.
        2     1     1     2   101     0  2.1005095139e+00 -7.4482460231e+00 -1.2310833923e+01  1.4544897419e+01  3.3000000000e-01 0. 9.
#pdf    2    2  1.432924e-01  1.456313e-01  7.740787e+00  6.160355e-01  6.149366e-01
</event>
<event>
     4  9999  1.000000e+00  5.563534e+00  7.578830e-03  2.336547e-01
       21    -1     0     0   101   102  0.0000000000e+00  0.0000000000e+00  7.6330730086e+00  7.6330730086e+00  0.0000000000e+00 0. 9.
       21    -1     0     0   103   104  0.0000000000e+00  0.0000000000e+00 -4.0721884965e+00  4.0721884965e+00  0.0000000000e+00 0. 9.
       21     1     1     2   101   104  4.6273891723e+00 -3.0887175295e+00  1.4013581713e+00  5.7373087117e+00  0.0000000000e+00 0. 9.
       21     1     1     2   103   102 -4.6273891723e+00  3.0887175295e+00  2.1595263408e+00  5.9679527935e+00  0.0000000000e+00 0. 9.
#pdf   21   21  7.633073e-02  4.072188e-02  5.563534e+00  1.514673e+00  2.541447e+00
</event>
<event>
     4  9999  1.000000e+00  6.240302e+00  7.588073e-03  2.262499e-01
       21    -1     0     0   101   102  0.0000000000e+00  0.0000000000e+00  1.7746082810e+01  1.7746082810e+01  0.0000000000e+00 0. 9.
       21    -1     0     0   103   104  0.0000000000e+00  0.0000000000e+00 -2.9047713495e+00  2.9047713495e+00  0.0000000000e+00 0. 9.
       21     1     1     2   101   104  2.0597044424e+00 -5.8905848371e+00  2.3143636527e+00  6.6556480699e+00  0.0000000000e+00 0. 9.
       21     1     1     2   103   102 -2.0597044424e+00  5.8905848371e+00  1.2526947808e+01  1.3995206090e+01  0.0000000000e+00 0. 9.
#pdf   21   21  1.774608e-01  2.904771e-02  6.240302e+00  6.080474e-01  3.251831e+00
</event>
<event>
     4  9999  1.000000e+00  7.873642e+00  7.606860e-03  2.126042e-01
        1    -1     0     0   101     0  0.0000000000e+00  0.0000000000e+00  3.4228772517e+01  3.4228772517e+01  0.0000000000e+00 0. 9.
       21    -1     0     0   102   103  0.0000000000e+00  0.0000000000e+00 -3.7554757989e+00  3.7554757989e+00  0.0000000000e+00 0. 9.
        1     1     1     2   102     0 -6.1023495054e+00  4.9728570799e+00  2.8902401308e+01  2.9957063915e+01  3.3000000000e-01 0. 9.
       21     1     1     2   101   103  6.1023495054e+00 -4.9728570799e+00  1.5708954102e+00  8.0271844013e+00  0.0000000000e+00 0. 9.
#pdf    1   21  3.422877e-01  3.755476e-02  7.873642e+00  1.562165e-01  2.734019e+00
</event>
<event>
     4  9999  1.000000e+00  5.599981e+00  7.579355e-03  2.332205e-01
        2    -1     0     0   101     0  0.0000000000e+00  0.0000000000e+00  4.3895225441e+00  4.3895225441e+00  0.0000000000e+00 0. 9.
       21    -1     0     0   102   103  0.0000000000e+00  0.0000000000e+00 -7.4079095413e+00  7.4079095413e+00  0.0000000000e+00 0. 9.
        2     1     1     2   102     0 -3.8459452109e+00  4.0639888121e+00 -2.6223892569e+00  6.1881439095e+00  3.3000000000e-01 0. 9.
       21     1     1     2   101   103  3.8459452109e+00 -4.0639888121e+00 -3.9599774028e-01  5.6092881759e+00  0.0000000000e+00 0. 9.
#pdf    2   21  4.389523e-02  7.407910e-02  5.599981e+00  5.817748e-01  1.556210e+00
</event>
<event>
     4  9999  1.000000e+00  1.185149e+01  7.640782e-03  1.922134e-01
        2    -1     0     0   101     0  0.0000000000e+00  0.0000000000e+00  1.6862412893e+01  1.6862412893e+01  0.0000000000e+00 0. 9.
       21    -1     0     0   102   101  0.0000000000e+00  0.0000000000e+00 -1.4754270057e+01  1.4754270057e+01  0.0000000000e+00 0. 9.
        2     1     1     2   103     0  6.9732517720e-01  1.1829662318e+01  1.1484655236e+01  1.6505555999e+01  3.3000000000e-01 0. 9.
       21     1     1     2   102   103 -6.9732517720e-01 -1.1829662318e+01 -9.3765124001e+00  1.5111126951e+01  0.0000000000e+00 0. 9.
#pdf    2   21  1.686241e-01  1.475427e-01  1.185149e+01  5.840760e-01  6.852565e-01
</event>
<event>
     4  9999  1.000000e+00  5.536114e+00  7.578433e-03  2.339842e-01
       21    -1     0     0   102   101  0.0000000000e+00  0.0000000000e+00  7.1650961265e+00  7.1650961265e+00  0.0000000000e+00 0. 9.
       21    -1     0     0   104   103  0.0000000000e+00  0.0000000000e+00 -4.2176257334e+01  4.2176257334e+01  0.0000000000e+00 0. 9.
       21     1     1     2   104   101  3.4674109191e+00  4.3157404324e+00 -4.0891779779e+01  4.1264830152e+01  0.0000000000e+00 0. 9.
       21     1     1     2   102   103 -3.4674109191e+00 -4.3157404324e+00  5.8806185719e+00  8.0765233084e+00  0.0000000000e+00 0. 9.
#pdf   21   21  7.165096e-02  4.217626e-01  5.536114e+00  1.604526e+00  1.395733e-01
</event>
<event>
     4  9999  1.000000e+00  6.979536e+00  7.597108e-03  2.194668e-01
       21    -1     0     0   102   103  0.0000000000e+00  0.0000000000e+00  6.2067449110e+00  6.2067449110e+00  0.0000000000e+00 0. 9.
        2    -1     0     0   101     0  0.0000000000e+00  0.0000000000e+00 -5.8769823766e+01  5.8769823766e+01  0.0000000000e+00 0. 9.
       21     1     1     2   101   103 -1.4150786855e+00 -6.8340475599e+00  3.9593795074e+00  8.0239229695e+00  0.0000000000e+00 0. 9.
        2     1     1     2   102     0  1.4150786855e+00  6.8340475599e+00 -5.6522458363e+01  5.6952645708e+01  3.3000000000e-01 0. 9.
#pdf   21    2  6.206745e-02  5.876982e-01  6.979536e+00  1.809728e+00  1.083167e-01
</event>
<event>
     4  9999  1.000000e+00  9.695132e+00  7.623819e-03  2.017145e-01
        1    -1     0     0   101     0  0.0000000000e+00  0.0000000000e+00  1.2924420198e+01  1.2924420198e+01  0.0000000000e+00 0. 9.
       21    -1     0     0   102   103  0.0000000000e+00  0.0000000000e+00 -1.1894597405e+01  1.1894597405e+01  0.0000000000e+00 0. 9.
        1     1     1     2   102     0 -8.3404712820e+00 -4.9395168258e+00  8.2491495120e+00  1.2732621700e+01  3.3000000000e-01 0. 9.
       21     1     1     2   101   103  8.3404712820e+00  4.9395168258e+00 -7.2193267189e+00  1.2086395904e+01  0.0000000000e+00 0. 9.
#pdf    1   21  1.292442e-01  1.189460e-01  9.695132e+00  3.642334e-01  9.133881e-01
</event>
<event>
     4  9999  1.000000e+00  5.485433e+00  7.577693e-03  2.346002e-01
       21    -1     0     0   101   102  0.0000000000e+00  0.0000000000e+00  8.3343287107e+00  8.3343287107e+00  0.0000000000e+00 0. 9.
       21    -1     0     0   103   104  0.0000000000e+00  0.0000000000e+00 -3.8917968391e+00  3.8917968391e+00  0.0000000000e+00 0. 9.
       21     1     1     2   101   104  4.6890240660e+00  2.8465811157e+00  3.8651462636e+00  6.7103894357e+00  0.0000000000e+00 0. 9.
       21     1     1     2   103   102 -4.6890240660e+00 -2.8465811157e+00  5.7738560805e-01  5.5157361141e+00  0.0000000000e+00 0. 9.
#pdf   21   21  8.334329e-02  3.891797e-02  5.485433e+00  1.396669e+00  2.625747e+00
</event>
<event>
     4  9999  1.000000e+00  5.658428e+00  7.580190e-03  2.325334e-01
       21    -1     0     0   102   101  0.0000000000e+00  0.0000000000e+00  6.8218281583e+00  6.8218281583e+00  0.0000000000e+00 0. 9.
       21    -1     0     0   103   102  0.0000000000e+00  0.0000000000e+00 -1.0862257624e+01  1.0862257624e+01  0.0000000000e+00 0. 9.
       21     1     1     2   104   101 -3.3193122715e+00  4.5825725634e+00  4.6431520340e+00  7.3196083273e+00  0.0000000000e+00 0. 9.
       21     1     1     2   103   104  3.3193122715e+00 -4.5825725634e+00 -8.6835815000e+00  1.0364477455e+01  0.0000000000e+00 0. 9.
#pdf   21   21  6.821828e-02  1.086226e-01  5.658428e+00  1.674910e+00  1.070528e+00
</event>
<event>
     4  9999  1.000000e+00  5.175987e+00  7.573028e-03  2.385656e-01
       21    -1     0     0   101   102  0.0000000000e+00  0.0000000000e+00  4.9411602841e+00  4.9411602841e+00  0.0000000000e+00 0. 9.
       -2    -1     0     0     0   101  0.0000000000e+00  0.0000000000e+00 -2.6590000532e+01  2.6590000532e+01  0.0000000000e+00 0. 9.
       21     1     1     2   103   102 -4.5762163742e+00  2.4161921451e+00  3.2415675873e+00  6.1063492537e+00  0.0000000000e+00 0. 9.
       -2     1     1     2     0   103  4.5762163742e+00 -2.4161921451e+00 -2.4890407835e+01  2.5424811563e+01  3.3000000000e-01 0. 9.
#pdf   21   -2  4.941160e-02  2.659000e-01  5.175987e+00  2.188579e+00  1.816920e-02
</event>
<event>
     4  9999  1.000000e+00  5.194215e+00  7.573311e-03  2.383217e-01
       21    -1     0     0   102   101  0.0000000000e+00  0.0000000000e+00  8.5822726282e+00  8.5822726282e+00  0.0000000000e+00 0. 9.
        1    -1     0     0   101     0  0.0000000000e+00  0.0000000000e+00 -2.0808303814e+01  2.0808303814e+01  0.0000000000e+00 0. 9.
       21     1     1     2   102   103  5.8019623570e-01 -5.1609123545e+00  7.4256455215e+00  9.0615592154e+00  0.0000000000e+00 0. 9.
        1     1     1     2   103     0 -5.8019623570e-01  5.1609123545e+00 -1.9651676708e+01  2.0329017227e+01  3.3000000000e-01 0. 9.
#pdf   21    1  8.582273e-02  2.080830e-01  5.194215e+00  1.362171e+00  3.050855e-01
</event>
<event>
     4  9999  1.000000e+00  6.669953e+00  7.593444e-03  2.221661e-01
       21    -1     0     0   101   102  0.0000000000e+00  0.0000000000e+00  5.3215902820e+00  5.3215902820e+00  0.0000000000e+00 0. 9.
       21    -1     0     0   103   104  0.0000000000e+00  0.0000000000e+00 -1.2263409058e+01  1.2263409058e+01  0.0000000000e+00 0. 9.
       21     1     1     2   101   104 -5.2293520359e+00 -4.1403086073e+00 -8.4314733188e+00  1.0750721855e+01  0.0000000000e+00 0. 9.
       21     1     1     2   103   102  5.2293520359e+00  4.1403086073e+00  1.4896545431e+00  6.8342774846e+00  0.0000000000e+00 0. 9.
#pdf   21   21  5.321590e-02  1.226341e-01  6.669953e+00  2.066821e+00  9.228519e-01
</event>
<event>
     4  9999  1.000000e+00  5.466001e+00  7.577408e-03  2.348388e-01
       21    -1     0     0   101   102  0.0000000000e+00  0.0000000000e+00  2.9372162430e+01  2.9372162430e+01  0.0000000000e+00 0. 9.
       21    -1     0     0   103   101  0.0000000000e+00  0.0000000000e+00 -1.0176793563e+00  1.0176793563e+00  0.0000000000e+00 0. 9.
       21     1     1     2   103   104 -4.7772834645e+00 -2.6560745707e+00  1.4509286402e+01  1.5504727063e+01  0.0000000000e+00 0. 9.
       21     1     1     2   104   102  4.7772834645e+00  2.6560745707e+00  1.3845196672e+01  1.4885114723e+01  0.0000000000e+00 0. 9.
#pdf   21   21  2.937216e-01  1.017679e-02  5.466001e+00  3.252027e-01  5.952836e+00
</event>
<event>
     4  9999  1.000000e+00  7.116499e+00  7.598679e-03  2.183306e-01
       21    -1     0     0   102   101  0.0000000000e+00  0.0000000000e+00  2.0452852827e+01  2.0452852827e+01  0.0000000000e+00 0. 9.
       21    -1     0     0   104   103  0.0000000000e+00  0.0000000000e+00 -7.7824734383e+00  7.7824734383e+00  0.0000000000e+00 0. 9.
       21     1     1     2   104   101 -3.2228419215e+00 -6.3449076096e+00 -5.3221751234e+00  8.8865128521e+00  0.0000000000e+00 0. 9.
       21     1     1     2   102   103  3.2228419215e+00  6.3449076096e+00  1.7992554512e+01  1.9348813413e+01  0.0000000000e+00 0. 9.
#pdf   21   21  2.045285e-01  7.782473e-02  7.116499e+00  4.954521e-01  1.468332e+00
</event>
<event>
     4  9999  1.000000e+00  6.285750e+00  7.588658e-03  2.257975e-01
       21    -1     0     0   101   102  0.0000000000e+00  0.0000000000e+00  4.5462067389e+00  4.5462067389e+00  0.0000000000e+00 0. 9.
       21    -1     0     0   103   104  0.0000000000e+00  0.0000000000e+00 -2.8240057693e+01  2.8240057693e+01  0.0000000000e+00 0. 9.
       21     1     1     2   101   104  5.8110643107e+00 -2.3962845163e+00 -2.5486258345e+01  2.6249952616e+01  0.0000000000e+00 0. 9.
       21     1     1     2   103   102 -5.8110643107e+00  2.3962845163e+00  1.7924073906e+00  6.5363118163e+00  0.0000000000e+00 0. 9.
#pdf   21   21  4.546207e-02  2.824006e-01  6.285750e+00  2.345777e+00  3.283331e-01
</event>
<event>
     4  9999  1.000000e+00  5.098603e+00  7.571819e-03  2.396163e-01
       21    -1     0     0   101   102  0.0000000000e+00  0.0000000000e+00  2.0485564266e+00  2.0485564266e+00  0.0000000000e+00 0. 9.
       21    -1     0     0   103   104  0.0000000000e+00  0.0000000000e+00 -4.8430511113e+01  4.8430511113e+01  0.0000000000e+00 0. 9.
       21     1     1     2   101   104  2.9998712213e+00  4.1226838397e+00 -4.4873183117e+01  4.5161912187e+01  0.0000000000e+00 0. 9.
       21     1     1     2   103   102 -2.9998712213e+00 -4.1226838397e+00 -1.5087715691e+00  5.3171553517e+00  0.0000000000e+00 0. 9.
#pdf   21   21  2.048556e-02  4.843051e-01  5.098603e+00  3.971334e+00  8.160470e-02
</event>
<event>
     4  9999  1.000000e+00  6.014280e+00  7.585100e-03  2.285779e-01
       21    -1     0     0   102   101  0.0000000000e+00  0.0000000000e+00  3.5280359068e+00  3.5280359068e+00  0.0000000000e+00 0. 9.
       21    -1     0     0   104   103  0.0000000000e+00  0.0000000000e+00 -3.9938552446e+01  3.9938552446e+01  0.0000000000e+00 0. 9.
       21     1     1     2   104   101  5.9814765904e+00  6.2729625970e-01 -3.6942464933e+01  3.7428829505e+01  0.0000000000e+00 0. 9.
       21     1     1     2   102   103 -5.9814765904e+00 -6.2729625970e-01  5.3194839446e-01  6.0377588469e+00  0.0000000000e+00 0. 9.
#pdf   21   21  3.528036e-02  3.993855e-01  6.014280e+00  2.831327e+00  1.590770e-01
</event>
<event>
     4  9999  1.000000e+00  5.046943e+00  7.571002e-03  2.403319e-01
       21    -1     0     0   102   101  0.0000000000e+00  0.0000000000e+00  4.3418859666e+00  4.3418859666e+00  0.0000000000e+00 0. 9.
       21    -1     0     0   103   102  0.0000000000e+00  0.0000000000e+00 -1.2857541624e+01  1.2857541624e+01  0.0000000000e+00 0. 9.
       21     1     1     2   104   101  1.8341881800e+00  4.7018490212e+00  2.0834427352e+00  5.4600699747e+00  0.0000000000e+00 0. 9.
       21     1     1     2   103   104 -1.8341881800e+00 -4.7018490212e+00 -1.0599098393e+01  1.1739357616e+01  0.0000000000e+00 0. 9.
#pdf   21   21  4.341886e-02  1.285754e-01  5.046943e+00  2.411552e+00  9.053762e-01
</event>
<event>
     4  9999  1.000000e+00  6.019439e+00  7.585169e-03  2.285232e-01
       21    -1     0     0   102   103  0.0000000000e+00  0.0000000000e+00  1.0399789239e+01  1.0399789239e+01  0.0000000000e+00 0. 9.
        1    -1     0     0   101     0  0.0000000000e+00  0.0000000000e+00 -7.6791433767e+01  7.6791433767e+01  0.0000000000e+00 0. 9.
       21     1     1     2   101   103  4.9309760099e+00  3.4520507301e+00  9.3990091591e+00  1.1161207454e+01  0.0000000000e+00 0. 9.
        1     1     1     2   102     0 -4.9309760099e+00 -3.4520507301e+00 -7.5790653686e+01  7.6030015552e+01  3.3000000000e-01 0. 9.
#pdf   21    1  1.039979e-01  7.679143e-01  6.019439e+00  1.113604e+00  3.983431e-03
</event>
<event>
     4  9999  1.000000e+00  5.140449e+00  7.572475e-03  2.390450e-01
       21    -1     0     0   102   101  0.0000000000e+00  0.0000000000e+00  1.6193031471e+00  1.6193031471e+00  0.0000000000e+00 0. 9.
        1    -1     0     0   101     0  0.0000000000e+00  0.0000000000e+00 -1.6718545656e+01  1.6718545656e+01  0.0000000000e+00 0. 9.
       21     1     1     2   102   103 -8.9668789591e-01  5.0563870667e+00 -8.9593366719e+00  1.0326703876e+01  0.0000000000e+00 0. 9.
        1     1     1     2   103     0  8.9668789591e-01 -5.0563870667e+00 -6.1399058373e+00  8.0111449270e+00  3.3000000000e-01 0. 9.
#pdf   21    1  1.619303e-02  1.671855e-01  5.140449e+00  4.560089e+00  3.460062e-01
</event>
<event>
     4  9999  1.000000e+00  5.181520e+00  7.573114e-03  2.384914e-01
       21    -1     0     0   103   102  0.0000000000e+00  0.0000000000e+00  1.4987561629e+01  1.4987561629e+01  0.0000000000e+00 0. 9.
       -2    -1     0     0     0   101  0.0000000000e+00  0.0000000000e+00 -7.0221305726e+00  7.0221305726e+00  0.0000000000e+00 0. 9.
       21     1     1     2   103   101 -2.3674275725e+00  4.6075529769e+00  1.3477230844e+01  1.4438490536e+01  0.0000000000e+00 0. 9.
       -2     1     1     2     0   102  2.3674275725e+00 -4.6075529769e+00 -5.5117997880e+00  7.5712016648e+00  3.3000000000e-01 0. 9.
#pdf   21   -2  1.498756e-01  7.022131e-02  5.181520e+00  7.622375e-01  1.075032e-01
</event>
<event>
     4  9999  1.000000e+00  5.757874e+00  7.581592e-03  2.313896e-01
       21    -1     0     0   101   102  0.0000000000e+00  0.0000000000e+00  3.0167266112e+00  3.0167266112e+00  0.0000000000e+00 0. 9.
       21    -1     0     0   103   101  0.0000000000e+00  0.0000000000e+00 -1.2733022260e+01  1.2733022260e+01  0.0000000000e+00 0. 9.
       21     1     1     2   103   104  3.9768232564e+00 -4.1638910037e+00 -7.7719417744e+00  9.6724449054e+00  0.0000000000e+00 0. 9.
       21     1     1     2   104   102 -3.9768232564e+00  4.1638910037e+00 -1.9443538742e+00  6.0773039657e+00  0.0000000000e+00 0. 9.
#pdf   21   21  3.016727e-02  1.273302e-01  5.757874e+00  3.148941e+00  9.010950e-01
</event>
<event>
     4  9999  1.000000e+00  1.372458e+01  7.653224e-03  1.858185e-01
       21    -1     0     0   102   101  0.0000000000e+00  0.0000000000e+00  5.9495351382e+00  5.9495351382e+00  0.0000000000e+00 0. 9.
       21    -1     0     0   104   103  0.0000000000e+00  0.0000000000e+00 -3.8916174164e+01  3.8916174164e+01  0.0000000000e+00 0. 9.
       21     1     1     2   104   101  1.3085600362e+01 -4.1389930454e+00 -2.6169747984e+01  2.9550294581e+01  0.0000000000e+00 0. 9.
       21     1     1     2   102   103 -1.3085600362e+01  4.1389930454e+00 -6.7968910422e+00  1.5315414722e+01  0.0000000000e+00 0. 9.
#pdf   21   21  5.949535e-02  3.891617e-01  1.372458e+01  1.833750e+00  1.101788e-01
</event>
<event>
     4  9999  1.000000e+00  6.459544e+00  7.590857e-03  2.241135e-01
        1    -1     0     0   101     0  0.0000000000e+00  0.0000000000e+00  5.0141007734e+01  5.0141007734e+01  0.0000000000e+00 0. 9.
       21    -1     0     0   102   101  0.0000000000e+00  0.0000000000e+00 -5.2848892682e+00  5.2848892682e+00  0.0000000000e+00 0. 9.
        1     1     1     2   103     0 -4.2014755283e+00  4.9055818385e+00  4.7865434818e+01  4.8300371428e+01  3.3000000000e-01 0. 9.
       21     1     1     2   102   103  4.2014755283e+00 -4.9055818385e+00 -3.0093163527e+00  7.1255255736e+00  0.0000000000e+00 0. 9.
#pdf    1   21  5.014101e-01  5.284889e-02  6.459544e+00  5.882877e-02  2.079019e+00
</event>
<event>
     4  9999  1.000000e+00  7.198329e+00  7.599603e-03  2.176677e-01
       21    -1     0     0   102   103  0.0000000000e+00  0.0000000000e+00  8.6300097368e+00  8.6300097368e+00  0.0000000000e+00 0. 9.
        2    -1     0     0   101     0  0.0000000000e+00  0.0000000000e+00 -1.5146254688e+01  1.5146254688e+01  0.0000000000e+00 0. 9.
       21     1     1     2   101   103  7.1156197663e+00 -1.0781047749e+00  5.9766323021e+00  9.3549178638e+00  0.0000000000e+00 0. 9.
        2     1     1     2   102     0 -7.1156197663e+00  1.0781047749e+00 -1.2492877253e+01  1.4421346561e+01  3.3000000000e-01 0. 9.
#pdf   21    2  8.630010e-02  1.514625e-01  7.198329e+00  1.326412e+00  6.144445e-01
</event>
<event>
     4  9999  1.000000e+00  5.619489e+00  7.579635e-03  2.329899e-01
       21    -1     0     0   101   102  0.0000000000e+00  0.0000000000e+00  1.3625573215e+01  1.3625573215e+01  0.0000000000e+00 0. 9.
       21    -1     0     0   103   104  0.0000000000e+00  0.0000000000e+00 -2.4510185103e+00  2.4510185103e+00  0.0000000000e+00 0. 9.
       21     1     1     2   101   104 -4.6593403703e+00  3.1415284266e+00  7.4626852565e+00  9.3418587433e+00  0.0000000000e+00 0. 9.
       21     1     1     2   103   102  4.6593403703e+00 -3.1415284266e+00  3.7118694484e+00  6.7347329823e+00  0.0000000000e+00 0. 9.
#pdf   21   21  1.362557e-01  2.451019e-02  5.619489e+00  8.386378e-01  3.602283e+00
</event>
<event>
     4  9999  1.000000e+00  5.137415e+00  7.572428e-03  2.390862e-01
       21    -1     0     0   101   102  0.0000000000e+00  0.0000000000e+00  1.3820420401e+01  1.3820420401e+01  0.0000000000e+00 0. 9.
       21    -1     0     0   103   104  0.0000000000e+00  0.0000000000e+00 -1.9139129051e+00  1.9139129051e+00  0.0000000000e+00 0. 9.
       21     1     1     2   101   104 -2.4425606307e+00  4.5196167037e+00  6.3217838577e+00  8.1460412917e+00  0.0000000000e+00 0. 9.
       21     1     1     2   103   102  2.4425606307e+00 -4.5196167037e+00  5.5847236384e+00  7.5882920147e+00  0.0000000000e+00 0. 9.
#pdf   21   21  1.382042e-01  1.913913e-02  5.137415e+00  8.350110e-01  4.139941e+00
</event>
<event>
     4  9999  1.000000e+00  5.527672e+00  7.578310e-03  2.340862e-01
        2    -1     0     0   101     0  0.0000000000e+00  0.0000000000e+00  2.1213364943e+01  2.1213364943e+01  0.0000000000e+00 0. 9.
       21    -1     0     0   102   101  0.0000000000e+00  0.0000000000e+00 -2.6569702869e+00  2.6569702869e+00  0.0000000000e+00 0. 9.
        2     1     1     2   103     0 -2.1953106647e+00 -5.0701338659e+00  1.7355006516e+01  1.8216223470e+01  3.3000000000e-01 0. 9.
       21     1     1     2   102   103  2.1953106647e+00  5.0701338659e+00  1.2013881401e+00  5.6541117601e+00  0.0000000000e+00 0. 9.
#pdf    2   21  2.121336e-01  2.656970e-02  5.527672e+00  5.813970e-01  3.414259e+00
</event>
<event>
     4  9999  1.000000e+00  5.588860e+00  7.579195e-03  2.333525e-01
       -2    -1     0     0     0   101  0.0000000000e+00  0.0000000000e+00  4.8894040919e+00  4.8894040919e+00  0.0000000000e+00 0. 9.
       21    -1     0     0   103   102  0.0000000000e+00  0.0000000000e+00 -1.6924920578e+01  1.6924920578e+01  0.0000000000e+00 0. 9.
       -2     1     1     2     0   102  5.5870082433e+00 -1.1916272152e-02  2.5833557492e+00  6.1642055478e+00  3.3000000000e-01 0. 9.
       21     1     1     2   103   101 -5.5870082433e+00  1.1916272152e-02 -1.4618872235e+01  1.5650119122e+01  0.0000000000e+00 0. 9.
#pdf   -2   21  4.889404e-02  1.692492e-01  5.588860e+00  1.487527e-01  6.560351e-01
</event>
<event>
     4  9999  1.000000e+00  7.295585e+00  7.600688e-03  2.168946e-01
        2    -1     0     0   101     0  0.0000000000e+00  0.0000000000e+00  8.0255302114e+00  8.0255302114e+00  0.0000000000e+00 0. 9.
        2    -1     0     0   102     0  0.0000000000e+00  0.0000000000e+00 -1.1054604766e+01  1.1054604766e+01  0.0000000000e+00 0. 9.
        2     1     1     2   101     0 -4.0747460249e+00 -6.0462113031e+00 -7.5450010320e+00  1.0497436204e+01  3.3000000000e-01 0. 9.
        2     1     1     2   102     0  4.0747460249e+00  6.0462113031e+00  4.5159264770e+00  8.5826987734e+00  3.3000000000e-01 0. 9.
#pdf    2    2  8.025530e-02  1.105460e-01  7.295585e+00  6.184762e-01  6.253718e-01
</event>
<event>
     4  9999  1.000000e+00  7.003259e+00  7.597382e-03  2.192676e-01
        1    -1     0     0   101     0  0.0000000000e+00  0.0000000000e+00  2.3779797192e+01  2.3779797192e+01  0.0000000000e+00 0. 9.
       21    -1     0     0   102   101  0.0000000000e+00  0.0000000000e+00 -2.2024386482e+00  2.2024386482e+00  0.0000000000e+00 0. 9.
        1     1     1     2   103     0  4.8629356855e+00 -5.0345325537e+00  1.4067319472e+01  1.5716012173e+01  3.3000000000e-01 0. 9.
       21     1     1     2   102   103 -4.8629356855e+00  5.0345325537e+00  7.5100390725e+00  1.0266223667e+01  0.0000000000e+00 0. 9.
#pdf    1   21  2.377980e-01  2.202439e-02  7.003259e+00  2.624247e-01  3.949021e+00
</event>
<event>
     4  9999  1.000000e+00  6.344335e+00  7.589406e-03  2.252219e-01
       21    -1     0     0   102   101  0.0000000000e+00  0.0000000000e+00  2.7100171759e+00  2.7100171759e+00  0.0000000000e+00 0. 9.
       21    -1     0     0   104   103  0.0000000000e+00  0.0000000000e+00 -3.1869530943e+01  3.1869530943e+01  0.0000000000e+00 0. 9.
       21     1     1     2   104   101 -5.1496713300e+00  3.7055996380e+00 -1.9456913533e+00  6.6359851060e+00  0.0000000000e+00 0. 9.
       21     1     1     2   102   103  5.1496713300e+00 -3.7055996380e+00 -2.7213822414e+01  2.7943563013e+01  0.0000000000e+00 0. 9.
#pdf   21   21  2.710017e-02  3.186953e-01  6.344335e+00  3.413167e+00  2.661686e-01
</event>
<event>
     4  9999  1.000000e+00  8.922261e+00  7.617002e-03  2.059251e-01
       21    -1     0     0   102   101  0.0000000000e+00  0.0000000000e+00  1.8787713850e+00  1.8787713850e+00  0.0000000000e+00 0. 9.
        2    -1     0     0   101     0  0.0000000000e+00  0.0000000000e+00 -7.0549712300e+01  7.0549712300e+01  0.0000000000e+00 0. 9.
       21     1     1     2   102   103 -6.3529827525e+00 -6.2620809593e+00 -1.1446222032e+01  1.4511721008e+01  0.0000000000e+00 0. 9.
        2     1     1     2   103     0  6.3529827525e+00  6.2620809593e+00 -5.7224718882e+01  5.7916762677e+01  3.3000000000e-01 0. 9.
#pdf   21    2  1.878771e-02  7.054971e-01  8.922261e+00  4.483471e+00  3.378016e-02
</event>
<event>
     4  9999  1.000000e+00  6.658478e+00  7.593305e-03  2.222698e-01
       21    -1     0     0   102   101  0.0000000000e+00  0.0000000000e+00  1.7100761031e+00  1.7100761031e+00  0.0000000000e+00 0. 9.
        2    -1     0     0   101     0  0.0000000000e+00  0.0000000000e+00 -4.4540862660e+01  4.4540862660e+01  0.0000000000e+00 0. 9.
       21     1     1     2   102   103 -4.0971411720e+00  5.2456715899e+00 -6.4630578473e+00  9.2776480290e+00  0.0000000000e+00 0. 9.
        2     1     1     2   103     0  4.0971411720e+00 -5.2456715899e+00 -3.6367728710e+01  3.6973290734e+01  3.3000000000e-01 0. 9.
#pdf   21    2  1.710076e-02  4.454086e-01  6.658478e+00  4.601777e+00  2.619464e-01
</event>
<event>
     4  9999  1.000000e+00  5.027396e+00  7.570690e-03  2.406057e-01
       21    -1     0     0   102   101  0.0000000000e+00  0.0000000000e+00  1.9526948377e+00  1.9526948377e+00  0.0000000000e+00 0. 9.
       21    -1     0     0   104   103  0.0000000000e+00  0.0000000000e+00 -1.7281643718e+01  1.7281643718e+01  0.0000000000e+00 0. 9.
       21     1     1     2   104   101 -3.5163383985e+00  3.5930587122e+00 -2.8460319640e+00  5.7770757812e+00  0.0000000000e+00 0. 9.
       21     1     1     2   102   103  3.5163383985e+00 -3.5930587122e+00 -1.2482916917e+01  1.3457262775e+01  0.0000000000e+00 0. 9.
#pdf   21   21  1.952695e-02  1.728164e-01  5.027396e+00  4.076453e+00  6.521580e-01
</event>
<event>
     4  9999  1.000000e+00  7.388142e+00  7.601708e-03  2.161733e-01
        2    -1     0     0   101     0  0.0000000000e+00  0.0000000000e+00  8.4850912803e+00  8.4850912803e+00  0.0000000000e+00 0. 9.
        2    -1     0     0   102     0  0.0000000000e+00  0.0000000000e+00 -7.1223538177e+00  7.1223538177e+00  0.0000000000e+00 0. 9.
        2     1     1     2   102     0  5.1920191318e+00  5.2468296617e+00  3.1069597032e+00  8.0155088898e+00  3.3000000000e-01 0. 9.
        2     1     1     2   101     0 -5.1920191318e+00 -5.2468296617e+00 -1.7442222407e+00  7.5919362082e+00  3.3000000000e-01 0. 9.
#pdf    2    2  8.485091e-02  7.122354e-02  7.388142e+00  6.204723e-01  6.135716e-01
</event>
<event>
     4  9999  1.000000e+00  9.527110e+00  7.622346e-03  2.025862e-01
       -2    -1     0     0     0   101  0.0000000000e+00  0.0000000000e+00  3.8746415560e+00  3.8746415560e+00  0.0000000000e+00 0. 9.
       21    -1     0     0   101   102  0.0000000000e+00  0.0000000000e+00 -5.4966953264e+01  5.4966953264e+01  0.0000000000e+00 0. 9.
       -2     1     1     2     0   103 -7.9265407717e+00  5.2832343266e+00 -3.2656742113e+00  1.0075521903e+01  3.3000000000e-01 0. 9.
       21     1     1     2   103   102  7.9265407717e+00 -5.2832343266e+00 -4.7826637497e+01  4.8766072917e+01  0.0000000000e+00 0. 9.
#pdf   -2   21  3.874642e-02  5.496695e-01  9.527110e+00  1.839657e-01  2.200636e-02
</event>
<event>
     4  9999  1.000000e+00  8.456211e+00  7.612647e-03  2.087389e-01
       21    -1     0     0   102   101  0.0000000000e+00  0.0000000000e+00  2.3947765128e+01  2.3947765128e+01  0.0000000000e+00 0. 9.
       21    -1     0     0   104   103  0.0000000000e+00  0.0000000000e+00 -8.2559684067e+00  8.2559684067e+00  0.0000000000e+00 0. 9.
       21     1     1     2   104   101  3.1204698267e+00 -7.8594006051e+00 -5.0187260939e+00  9.8333677556e+00  0.0000000000e+00 0. 9.
       21     1     1     2   102   103 -3.1204698267e+00  7.8594006051e+00  2.0710522815e+01  2.2370365779e+01  0.0000000000e+00 0. 9.
#pdf   21   21  2.394777e-01  8.255968e-02  8.456211e+00  3.827085e-01  1.370448e+00
</event>
<event>
     4  9999  1.000000e+00  5.249388e+00  7.574159e-03  2.375917e-01
       21    -1     0     0   101   102  0.0000000000e+00  0.0000000000e+00  9.7823902709e+00  9.7823902709e+00  0.0000000000e+00 0. 9.
       21    -1     0     0   102   103  0.0000000000e+00  0.0000000000e+00 -9.0643811386e+00  9.0643811386e+00  0.0000000000e+00 0. 9.
       21     1     1     2   101   104  5.2202793141e+00  5.5204923044e-01  8.1823076252e+00  9.7214316098e+00  0.0000000000e+00 0. 9.
       21     1     1     2   104   103 -5.2202793141e+00 -5.5204923044e-01 -7.4642984929e+00  9.1253397998e+00  0.0000000000e+00 0. 9.
#pdf   21   21  9.782390e-02  9.064381e-02  5.249388e+00  1.198984e+00  1.292043e+00
</event>
<event>
     4  9999  1.000000e+00  8.776019e+00  7.615660e-03  2.067838e-01
       21    -1     0     0   101   102  0.0000000000e+00  0.0000000000e+00  2.6366847380e+00  2.6366847380e+00  0.0000000000e+00 0. 9.
       21    -1     0     0   103   101  0.0000000000e+00  0.0000000000e+00 -3.0830834931e+01  3.0830834931e+01  0.0000000000e+00 0. 9.
       21     1     1     2   103   104  5.6835444005e+00 -6.6869901156e+00 -1.7933457378e+01  1.9965655694e+01  0.0000000000e+00 0. 9.
       21     1     1     2   104   102 -5.6835444005e+00  6.6869901156e+00 -1.0260692815e+01  1.3501863975e+01  0.0000000000e+00 0. 9.
#pdf   21   21  2.636685e-02  3.083083e-01  8.776019e+00  3.559484e+00  2.483767e-01
</event>
<event>
     4  9999  1.000000e+00  7.785745e+00  7.605951e-03  2.132252e-01
        2    -1     0     0   101     0  0.0000000000e+00  0.0000000000e+00  1.7916155950e+01  1.7916155950e+01  0.0000000000e+00 0. 9.
       21    -1     0     0   102   103  0.0000000000e+00  0.0000000000e+00 -4.0483697043e+01  4.0483697043e+01  0.0000000000e+00 0. 9.
        2     1     1     2   102     0  5.4870875165e+00  5.5231456812e+00  1.6667875573e+01  1.8399463137e+01  3.3000000000e-01 0. 9.
       21     1     1     2   101   103 -5.4870875165e+00 -5.5231456812e+00 -3.9235416666e+01  4.0000389856e+01  0.0000000000e+00 0. 9.
#pdf    2   21  1.791616e-01  4.048370e-01  7.785745e+00  5.928093e-01  1.302186e-01
</event>
<event>
     4  9999  1.000000e+00  5.167693e+00  7.572900e-03  2.386770e-01
        1    -1     0     0   101     0  0.0000000000e+00  0.0000000000e+00  6.6927484081e+00  6.6927484081e+00  0.0000000000e+00 0. 9.
       21    -1     0     0   102   101  0.0000000000e+00  0.0000000000e+00 -1.3393396797e+01  1.3393396797e+01  0.0000000000e+00 0. 9.
        1     1     1     2   103     0  4.7703389044e+00  1.9831020363e+00  5.0612208778e+00  7.2397295339e+00  3.3000000000e-01 0. 9.
       21     1     1     2   102   103 -4.7703389044e+00 -1.9831020363e+00 -1.1761869267e+01  1.2846415671e+01  0.0000000000e+00 0. 9.
#pdf    1   21  6.692748e-02  1.339340e-01  5.167693e+00  4.146591e-01  8.636740e-01
</event>
<event>
     4  9999  1.000000e+00  5.014416e+00  7.570483e-03  2.407885e-01
        2    -1     0     0   101     0  0.0000000000e+00  0.0000000000e+00  3.1946093746e+01  3.1946093746e+01  0.0000000000e+00 0. 9.
       21    -1     0     0   102   101  0.0000000000e+00  0.0000000000e+00 -1.0137370235e+00  1.0137370235e+00  0.0000000000e+00 0. 9.
        2     1     1     2   103     0  3.9709416647e+00  3.0551149788e+00  2.3265006414e+01  2.3800662358e+01  3.3000000000e-01 0. 9.
       21     1     1     2   102   103 -3.9709416647e+00 -3.0551149788e+00  7.6673503089e+00  9.1591684119e+00  0.0000000000e+00 0. 9.
#pdf    2   21  3.194609e-01  1.013737e-02  5.014416e+00  4.583531e-01  5.838225e+00
</event>
<event>
     4  9999  1.000000e+00  5.364375e+00  7.575900e-03  2.361085e-01
       21    -1     0     0   102   103  0.0000000000e+00  0.0000000000e+00  3.4388234227e+01  3.4388234227e+01  0.0000000000e+00 0. 9.
        1    -1     0     0   101     0  0.0000000000e+00  0.0000000000e+00 -1.3994963074e+00  1.3994963074e+00  0.0000000000e+00 0. 9.
       21     1     1     2   101   103  4.4452414353e+00  2.9972983849e+00  5.1452590131e+00  7.4308585869e+00  0.0000000000e+00 0. 9.
        1     1     1     2   102     0 -4.4452414353e+00 -2.9972983849e+00  2.7843478906e+01  2.8356871947e+01  3.3000000000e-01 0. 9.
#pdf   21    1  3.438823e-01  1.399496e-02  5.364375e+00  2.476630e-01  4.663513e-01
</event>
<event>
     4  9999  1.000000e+00  5.769201e+00  7.581750e-03  2.312613e-01
       21    -1     0     0   101   102  0.0000000000e+00  0.0000000000e+00  7.7276928484e+00  7.7276928484e+00  0.0000000000e+00 0. 9.
       21    -1     0     0   103   104  0.0000000000e+00  0.0000000000e+00 -5.5159971414e+00  5.5159971414e+00  0.0000000000e+00 0. 9.
       21     1     1     2   101   104 -3.7103105993e+00  4.4178361685e+00  4.2058916006e+00  7.1395521786e+00  0.0000000000e+00 0. 9.
       21     1     1     2   103   102  3.7103105993e+00 -4.4178361685e+00 -1.9941958937e+00  6.1041378111e+00  0.0000000000e+00 0. 9.
#pdf   21   21  7.727693e-02  5.515997e-02  5.769201e+00  1.494880e+00  2.007103e+00
</event>
<event>
     4  9999  1.000000e+00  5.007939e+00  7.570379e-03  2.408799e-01
       21    -1     0     0   102   101  0.0000000000e+00  0.0000000000e+00  2.4690124729e+01  2.4690124729e+01  0.0000000000e+00 0. 9.
       21    -1     0     0   101   103  0.0000000000e+00  0.0000000000e+00 -2.2100582544e+00  2.2100582544e+00  0.0000000000e+00 0. 9.
       21     1     1     2   104   103  2.6082927551e-01 -5.0011423589e+00  1.3527223899e+00  5.1874188831e+00  0.0000000000e+00 0. 9.
       21     1     1     2   102   104 -2.6082927551e-01  5.0011423589e+00  2.1127344085e+01  2.1712764101e+01  0.0000000000e+00 0. 9.
#pdf   21   21  2.469012e-01  2.210058e-02  5.007939e+00  4.258723e-01  3.783494e+00
</event>
<event>
     4  9999  1.000000e+00  5.212898e+00  7.573599e-03  2.380732e-01
       21    -1     0     0   102   103  0.0000000000e+00  0.0000000000e+00  1.3980308504e+00  1.3980308504e+00  0.0000000000e+00 0. 9.
        2    -1     0     0   101     0  0.0000000000e+00  0.0000000000e+00 -2.8670593691e+01  2.8670593691e+01  0.0000000000e+00 0. 9.
       21     1     1     2   101   103  3.2973844290e+00  4.0329471056e+00 -5.1010779051e+00  7.2909808821e+00  0.0000000000e+00 0. 9.
        2     1     1     2   102     0 -3.2973844290e+00 -4.0329471056e+00 -2.2171484936e+01  2.2777643660e+01  3.3000000000e-01 0. 9.
#pdf   21    2  1.398031e-02  2.867059e-01  5.212898e+00  4.964571e+00  4.995427e-01
</event>
<event>
     4  9999  1.000000e+00  7.092225e+00  7.598402e-03  2.185295e-01
       21    -1     0     0   102   101  0.0000000000e+00  0.0000000000e+00  6.3469793130e+00  6.3469793130e+00  0.0000000000e+00 0. 9.
       21    -1     0     0   101   103  0.0000000000e+00  0.0000000000e+00 -1.1721932507e+01  1.1721932507e+01  0.0000000000e+00 0. 9.
       21     1     1     2   104   103 -6.7258583606e+00  2.2499952693e+00 -7.8293370952e+00  1.0564003443e+01  0.0000000000e+00 0. 9.
       21     1     1     2   102   104  6.7258583606e+00 -2.2499952693e+00  2.4543839016e+00  7.5049083762e+00  0.0000000000e+00 0. 9.
#pdf   21   21  6.346979e-02  1.172193e-01  7.092225e+00  1.773304e+00  9.632934e-01
</event>
<event>
     4  9999  1.000000e+00  6.050981e+00  7.585590e-03  2.281907e-01
       21    -1     0     0   102   103  0.0000000000e+00  0.0000000000e+00  2.8382346005e+01  2.8382346005e+01  0.0000000000e+00 0. 9.
        1    -1     0     0   101     0  0.0000000000e+00  0.0000000000e+00 -2.9497209734e+00  2.9497209734e+00  0.0000000000e+00 0. 9.
       21     1     1     2   101   103 -5.5382032701e+00  2.4328717860e+00  2.4459518937e+01  2.5196401076e+01  0.0000000000e+00 0. 9.
        1     1     1     2   102     0  5.5382032701e+00 -2.4328717860e+00  9.7310609484e-01  6.1356659019e+00  3.3000000000e-01 0. 9.
#pdf   21    1  2.838235e-01  2.949721e-02  6.050981e+00  3.303566e-01  4.385367e-01
</event>
<event>
     4  9999  1.000000e+00  6.029691e+00  7.585306e-03  2.284148e-01
       21    -1     0     0   102   101  0.0000000000e+00  0.0000000000e+00  1.4265745505e+01  1.4265745505e+01  0.0000000000e+00 0. 9.
       21    -1     0     0   104   103  0.0000000000e+00  0.0000000000e+00 -4.9080101183e+00  4.9080101183e+00  0.0000000000e+00 0. 9.
       21     1     1     2   104   101 -3.1810849339e-01 -6.0212937603e+00  1.1325925564e+01  1.2830968843e+01  0.0000000000e+00 0. 9.
       21     1     1     2   102   103  3.1810849339e-01  6.0212937603e+00 -1.9681901778e+00  6.3427867801e+00  0.0000000000e+00 0. 9.
#pdf   21   21  1.426575e-01  4.908010e-02  6.029691e+00  7.887253e-01  2.206542e+00
</event>
<event>
     4  9999  1.000000e+00  5.123994e+00  7.572218e-03  2.392688e-01
       21    -1     0     0   102   103  0.0000000000e+00  0.0000000000e+00  4.9238328694e+00  4.9238328694e+00  0.0000000000e+00 0. 9.
        3    -1     0     0   101     0  0.0000000000e+00  0.0000000000e+00 -1.0859444491e+01  1.0859444491e+01  0.0000000000e+00 0. 9.
       21     1     1     2   101   103 -1.1925658980e+00  4.9771239377e+00 -8.5878296181e+00  9.9972393020e+00  0.0000000000e+00 0. 9.
        3     1     1     2   102     0  1.1925658980e+00 -4.9771239377e+00  2.6522179965e+00  5.7860380584e+00  5.0000000000e-01 0. 9.
#pdf   21    3  4.923833e-02  1.085944e-01  5.123994e+00  2.193798e+00  3.150891e-02
</event>
<event>
     4  9999  1.000000e+00  5.188014e+00  7.573215e-03  2.384045e-01
       21    -1     0     0   102   103  0.0000000000e+00  0.0000000000e+00  2.8448602197e+00  2.8448602197e+00  0.0000000000e+00 0. 9.
        2    -1     0     0   101     0  0.0000000000e+00  0.0000000000e+00 -1.7774655274e+01  1.7774655274e+01  0.0000000000e+00 0. 9.
       21     1     1     2   101   103  1.0806189659e+00  5.0713687029e+00 -4.1382594523e-01  5.2017083523e+00  0.0000000000e+00 0. 9.
        2     1     1     2   102     0 -1.0806189659e+00 -5.0713687029e+00 -1.4515969109e+01  1.5417807141e+01  3.3000000000e-01 0. 9.
#pdf   21    2  2.844860e-02  1.777466e-01  5.188014e+00  3.242731e+00  6.124031e-01
</event>
<event>
     4  9999  1.000000e+00  5.369969e+00  7.575984e-03  2.360377e-01
       21    -1     0     0   102   103  0.0000000000e+00  0.0000000000e+00  5.8561642215e+00  5.8561642215e+00  0.0000000000e+00 0. 9.
        2    -1     0     0   101     0  0.0000000000e+00  0.0000000000e+00 -2.4861086341e+01  2.4861086341e+01  0.0000000000e+00 0. 9.
       21     1     1     2   101   103  5.1674466830e+00  1.4571460840e+00  4.2505099278e+00  6.8478182349e+00  0.0000000000e+00 0. 9.
        2     1     1     2   102     0 -5.1674466830e+00 -1.4571460840e+00 -2.3255432048e+01  2.3869432328e+01  3.3000000000e-01 0. 9.
#pdf   21    2  5.856164e-02  2.486109e-01  5.369969e+00  1.910863e+00  5.445811e-01
</event>
<event>
     4  9999  1.000000e+00  5.733535e+00  7.581251e-03  2.316667e-01
       21    -1     0     0   101   102  0.0000000000e+00  0.0000000000e+00  5.7268786958e+00  5.7268786958e+00  0.0000000000e+00 0. 9.
       21    -1     0     0   102   103  0.0000000000e+00  0.0000000000e+00 -1.0764226978e+01  1.0764226978e+01  0.0000000000e+00 0. 9.
       21     1     1     2   101   104 -5.6743618251e+00  8.2160733776e-01  3.1145158627e+00  6.5248471092e+00  0.0000000000e+00 0. 9.
       21     1     1     2   104   103  5.6743618251e+00 -8.2160733776e-01 -8.1518641450e+00  9.9662585647e+00  0.0000000000e+00 0. 9.
#pdf   21   21  5.726879e-02  1.076423e-01  5.733535e+00  1.945814e+00  1.079314e+00
</event>
<event>
     4  9999  1.000000e+00  5.191663e+00  7.573271e-03  2.383558e-01
        1    -1     0     0   101     0  0.0000000000e+00  0.0000000000e+00  7.1783515247e+00  7.1783515247e+00  0.0000000000e+00 0. 9.
        1    -1     0     0   102     0  0.0000000000e+00  0.0000000000e+00 -4.7188249210e+00  4.7188249210e+00  0.0000000000e+00 0. 9.
        1     1     1     2   101     0  7.3885750843e-01  5.1303801603e+00 -1.4545862272e+00  5.3936473837e+00  3.3000000000e-01 0. 9.
        1     1     1     2   102     0 -7.3885750843e-01 -5.1303801603e+00  3.9141128309e+00  6.5035290620e+00  3.3000000000e-01 0. 9.
#pdf    1    1  7.178352e-02  4.718825e-02  5.191663e+00  4.126679e-01  4.225396e-01
</event>
<event>
     4  9999  1.000000e+00  9.069815e+00  7.618335e-03  2.050799e-01
        1    -1     0     0   101     0  0.0000000000e+00  0.0000000000e+00  4.5497251854e+00  4.5497251854e+00  0.0000000000e+00 0. 9.
        2    -1     0     0   102     0  0.0000000000e+00  0.0000000000e+00 -1.8592566885e+01  1.8592566885e+01  0.0000000000e+00 0. 9.
        1     1     1     2   102     0  9.0454691208e+00  5.7889840391e-01 -8.9403939914e+00  1.2735587136e+01  3.3000000000e-01 0. 9.
        2     1     1     2   101     0 -9.0454691208e+00 -5.7889840391e-01 -5.1024477080e+00  1.0406704934e+01  3.3000000000e-01 0. 9.
#pdf    1    2  4.549725e-02  1.859257e-01  9.069815e+00  4.318810e-01  5.800943e-01
</event>
<event>
     4  9999  1.000000e+00  5.814217e+00  7.582376e-03  2.307552e-01
       21    -1     0     0   102   101  0.0000000000e+00  0.0000000000e+00  4.4401111488e+00  4.4401111488e+00  0.0000000000e+00 0. 9.
       21    -1     0     0   104   103  0.0000000000e+00  0.0000000000e+00 -7.8173605012e+00  7.8173605012e+00  0.0000000000e+00 0. 9.
       21     1     1     2   104   101 -4.5078421630e+00 -3.6721214915e+00 -6.9909697046e-01  5.8560954388e+00  0.0000000000e+00 0. 9.
       21     1     1     2   102   103  4.5078421630e+00  3.6721214915e+00 -2.6781523820e+00  6.4013762111e+00  0.0000000000e+00 0. 9.
#pdf   21   21  4.440111e-02  7.817361e-02  5.814217e+00  2.384573e+00  1.478348e+00
</event>
<event>
     4  9999  1.000000e+00  5.075349e+00  7.571452e-03  2.399370e-01
       21    -1     0     0   102   103  0.0000000000e+00  0.0000000000e+00  8.4878382855e+00  8.4878382855e+00  0.0000000000e+00 0. 9.
        2    -1     0     0   101     0  0.0000000000e+00  0.0000000000e+00 -8.2867484364e+00  8.2867484364e+00  0.0000000000e+00 0. 9.
       21     1     1     2   101   103  4.7109542291e+00  1.8831192466e+00  6.7750333582e+00  8.4640595963e+00  0.0000000000e+00 0. 9.
        2     1     1     2   102     0 -4.7109542291e+00 -1.8831192466e+00 -6.5739435091e+00  8.3105271257e+00  3.3000000000e-01 0. 9.
#pdf   21    2  8.487838e-02  8.286748e-02  5.075349e+00  1.377988e+00  6.189499e-01
</event>
<event>
     4  9999  1.000000e+00  6.332608e+00  7.589256e-03  2.253364e-01
       21    -1     0     0   102   101  0.0000000000e+00  0.0000000000e+00  2.2998072500e+01  2.2998072500e+01  0.0000000000e+00 0. 9.
       21    -1     0     0   101   103  0.0000000000e+00  0.0000000000e+00 -3.8037756326e+00  3.8037756326e+00  0.0000000000e+00 0. 9.
       21     1     1     2   104   103  6.1949294147e+00  1.3133070417e+00 -2.6492033755e-01  6.3381470971e+00  0.0000000000e+00 0. 9.
       21     1     1     2   102   104 -6.1949294147e+00 -1.3133070417e+00  1.9459217205e+01  2.0463701035e+01  0.0000000000e+00 0. 9.
#pdf   21   21  2.299807e-01  3.803776e-02  6.332608e+00  4.372653e-01  2.687442e+00
</event>
<event>
     4  9999  1.000000e+00  5.398642e+00  7.576412e-03  2.356762e-01
       21    -1     0     0   101   102  0.0000000000e+00  0.0000000000e+00  3.3152154926e+00  3.3152154926e+00  0.0000000000e+00 0. 9.
       21    -1     0     0   103   101  0.0000000000e+00  0.0000000000e+00 -2.2772561688e+01  2.2772561688e+01  0.0000000000e+00 0. 9.
       21     1     1     2   103   104 -5.0400286715e+00  1.9347984784e+00 -1.9949193435e+01  2.0666776547e+01  0.0000000000e+00 0. 9.
       21     1     1     2   104   102  5.0400286715e+00 -1.9347984784e+00  4.9184723906e-01  5.4210006335e+00  0.0000000000e+00 0. 9.
#pdf   21   21  3.315215e-02  2.277256e-01  5.398642e+00  2.938133e+00  4.615154e-01
</event>
<event>
     4  9999  1.000000e+00  6.413190e+00  7.590276e-03  2.245557e-01
       21    -1     0     0   102   103  0.0000000000e+00  0.0000000000e+00  2.2419272659e+00  2.2419272659e+00  0.0000000000e+00 0. 9.
        2    -1     0     0   101     0  0.0000000000e+00  0.0000000000e+00 -1.8718164453e+01  1.8718164453e+01  0.0000000000e+00 0. 9.
       21     1     1     2   101   103 -4.6454320123e+00  4.4153849304e+00 -6.7547627858e+00  9.3114168072e+00  0.0000000000e+00 0. 9.
        2     1     1     2   102     0  4.6454320123e+00 -4.4153849304e+00 -9.7214744015e+00  1.1648674912e+01  3.3000000000e-01 0. 9.
#pdf   21    2  2.241927e-02  1.871816e-01  6.413190e+00  3.869400e+00  5.953863e-01
</event>
<event>
     4  9999  1.000000e+00  6.090186e+00  7.586110e-03  2.277811e-01
       -2    -1     0     0     0   101  0.0000000000e+00  0.0000000000e+00  1.1929557345e+01  1.1929557345e+01  0.0000000000e+00 0. 9.
       -2    -1     0     0     0   102  0.0000000000e+00  0.0000000000e+00 -9.3464264049e+00  9.3464264049e+00  0.0000000000e+00 0. 9.
       -2     1     1     2     0   101  3.8401498605e-02 -6.0870901460e+00 -7.3945056094e+00  9.5834103704e+00  3.3000000000e-01 0. 9.
       -2     1     1     2     0   102 -3.8401498605e-02  6.0870901460e+00  9.9776365491e+00  1.1692573379e+01  3.3000000000e-01 0. 9.
#pdf   -2   -2  1.192956e-01  9.346426e-02  6.090186e+00  6.017966e-02  8.020068e-02
</event>
<event>
     4  9999  1.000000e+00  5.508681e+00  7.578033e-03  2.343166e-01
       21    -1     0     0   102   101  0.0000000000e+00  0.0000000000e+00  6.0712218616e+00  6.0712218616e+00  0.0000000000e+00 0. 9.
       21    -1     0     0   104   103  0.0000000000e+00  0.0000000000e+00 -7.8678398612e+00  7.8678398612e+00  0.0000000000e+00 0. 9.
       21     1     1     2   104   101  4.8010590491e+00  2.7009993630e+00  3.3107469241e+00  6.4270219190e+00  0.0000000000e+00 0. 9.
       21     1     1     2   102   103 -4.8010590491e+00 -2.7009993630e+00 -5.1073649237e+00  7.5120398039e+00  0.0000000000e+00 0. 9.
#pdf   21   21  6.071222e-02  7.867840e-02  5.508681e+00  1.853722e+00  1.473675e+00
</event>
<event>
     4  9999  1.000000e+00  5.535109e+00  7.578418e-03  2.339964e-01
       21    -1     0     0   102   103  0.0000000000e+00  0.0000000000e+00  3.5190147129e+00  3.5190147129e+00  0.0000000000e+00 0. 9.
        2    -1     0     0   101     0  0.0000000000e+00  0.0000000000e+00 -2.0246747282e+01  2.0246747282e+01  0.0000000000e+00 0. 9.
       21     1     1     2   101   103 -1.8682589186e+00 -5.2080350607e+00  6.0722132623e-01  5.5662140023e+00  0.0000000000e+00 0. 9.
        2     1     1     2   102     0  1.8682589186e+00  5.2080350607e+00 -1.7334953896e+01  1.8199547993e+01  3.3000000000e-01 0. 9.
#pdf   21    2  3.519015e-02  2.024675e-01  5.535109e+00  2.823154e+00  5.901571e-01
</event>
<event>
     4  9999  1.000000e+00  5.371469e+00  7.576006e-03  2.360187e-01
        1    -1     0     0   101     0  0.0000000000e+00  0.0000000000e+00  2.5825827873e+01  2.5825827873e+01  0.0000000000e+00 0. 9.
       21    -1     0     0   102   103  0.0000000000e+00  0.0000000000e+00 -4.2168200630e+00  4.2168200630e+00  0.0000000000e+00 0. 9.
        1     1     1     2   102     0 -4.7489675376e+00 -2.5071016460e+00  2.3682617731e+01  2.4286076957e+01  3.3000000000e-01 0. 9.
       21     1     1     2   101   103  4.7489675376e+00  2.5071016460e+00 -2.0736099212e+00  5.7565709795e+00  0.0000000000e+00 0. 9.
#pdf    1   21  2.582583e-01  4.216820e-02  5.371469e+00  2.513591e-01  2.472866e+00
</event>
<event>
     4  9999  1.000000e+00  6.439160e+00  7.590602e-03  2.243073e-01
       21    -1     0     0   102   101  0.0000000000e+00  0.0000000000e+00  2.2815372392e+00  2.2815372392e+00  0.0000000000e+00 0. 9.
       21    -1     0     0   104   103  0.0000000000e+00  0.0000000000e+00 -2.1051437321e+01  2.1051437321e+01  0.0000000000e+00 0. 9.
       21     1     1     2   104   101 -5.1740551577e+00  3.8330053783e+00 -5.0711066724e+00  8.1962735366e+00  0.0000000000e+00 0. 9.
       21     1     1     2   102   103  5.1740551577e+00 -3.8330053783e+00 -1.3698793410e+01  1.5136701024e+01  0.0000000000e+00 0. 9.
#pdf   21   21  2.281537e-02  2.105144e-01  6.439160e+00  3.827853e+00  4.882820e-01
</event>
<event>
     4  9999  1.000000e+00  5.364908e+00  7.575908e-03  2.361018e-01
       21    -1     0     0   101   102  0.0000000000e+00  0.0000000000e+00  4.1883830051e+01  4.1883830051e+01  0.0000000000e+00 0. 9.
       21    -1     0     0   102   103  0.0000000000e+00  0.0000000000e+00 -2.7386996109e+01  2.7386996109e+01  0.0000000000e+00 0. 9.
       21     1     1     2   101   104  2.5429217835e+00 -4.7239588486e+00  4.1446535092e+01  4.1792314000e+01  0.0000000000e+00 0. 9.
       21     1     1     2   104   103 -2.5429217835e+00  4.7239588486e+00 -2.6949701150e+01  2.7478512159e+01  0.0000000000e+00 0. 9.
#pdf   21   21  4.188383e-01  2.738700e-01  5.364908e+00  1.460021e-01  3.631983e-01
</event>
<event>
     4  9999  1.000000e+00  6.116338e+00  7.586455e-03  2.275101e-01
       21    -1     0     0   102   101  0.0000000000e+00  0.0000000000e+00  1.1124962006e+00  1.1124962006e+00  0.0000000000e+00 0. 9.
       21    -1     0     0   103   102  0.0000000000e+00  0.0000000000e+00 -3.6661489220e+01  3.6661489220e+01  0.0000000000e+00 0. 9.
       21     1     1     2   104   101 -3.5133361758e+00 -5.0066020689e+00 -2.3208510872e+01  2.4000928571e+01  0.0000000000e+00 0. 9.
       21     1     1     2   103   104  3.5133361758e+00  5.0066020689e+00 -1.2340482147e+01  1.3773056850e+01  0.0000000000e+00 0. 9.
#pdf   21   21  1.112496e-02  3.666149e-01  6.116338e+00  5.809514e+00  2.002978e-01
</event>
<event>
     4  9999  1.000000e+00  5.722850e+00  7.581101e-03  2.317889e-01
       21    -1     0     0   102   101  0.0000000000e+00  0.0000000000e+00  1.3517105138e+00  1.3517105138e+00  0.0000000000e+00 0. 9.
       21    -1     0     0   101   103  0.0000000000e+00  0.0000000000e+00 -2.4290073300e+01  2.4290073300e+01  0.0000000000e+00 0. 9.
       21     1     1     2   104   103  2.9653773019e+00 -4.8946454239e+00 -1.2110414274e+01  1.3394519411e+01  0.0000000000e+00 0. 9.
       21     1     1     2   102   104 -2.9653773019e+00  4.8946454239e+00 -1.0827948512e+01  1.2247264403e+01  0.0000000000e+00 0. 9.
#pdf   21   21  1.351711e-02  2.429007e-01  5.722850e+00  5.150384e+00  4.186334e-01
</event>
<event>
     4  9999  1.000000e+00  5.507580e+00  7.578017e-03  2.343300e-01
       21    -1     0     0   102   101  0.0000000000e+00  0.0000000000e+00  2.9819950347e+01  2.9819950347e+01  0.0000000000e+00 0. 9.
       21    -1     0     0   103   102  0.0000000000e+00  0.0000000000e+00 -3.2467015687e+00  3.2467015687e+00  0.0000000000e+00 0. 9.
       21     1     1     2   104   101  2.0530521521e+00 -5.1106182730e+00  2.6987269303e+01  2.7543531849e+01  0.0000000000e+00 0. 9.
       21     1     1     2   103   104 -2.0530521521e+00  5.1106182730e+00 -4.1402052529e-01  5.5231200663e+00  0.0000000000e+00 0. 9.
#pdf   21   21  2.981995e-01  3.246702e-02  5.507580e+00  3.166343e-01  2.985086e+00
</event>
<event>
     4  9999  1.000000e+00  5.977557e+00  7.584607e-03  2.289690e-01
       21    -1     0     0   101   102  0.0000000000e+00  0.0000000000e+00  5.7892135754e+00  5.7892135754e+00  0.0000000000e+00 0. 9.
       21    -1     0     0   103   101  0.0000000000e+00  0.0000000000e+00 -6.2958153335e+00  6.2958153335e+00  0.0000000000e+00 0. 9.
       21     1     1     2   103   104 -5.8925252609e+00  1.0046555490e+00  5.9398561746e-01  6.0069963906e+00  0.0000000000e+00 0. 9.
       21     1     1     2   104   102  5.8925252609e+00 -1.0046555490e+00 -1.1005873755e+00  6.0780325183e+00  0.0000000000e+00 0. 9.
#pdf   21   21  5.789214e-02  6.295815e-02  5.977557e+00  1.927485e+00  1.794144e+00
</event>
<event>
     4  9999  1.000000e+00  6.451259e+00  7.590754e-03  2.241922e-01
       -3    -1     0     0     0   101  0.0000000000e+00  0.0000000000e+00  1.7000165443e+01  1.7000165443e+01  0.0000000000e+00 0. 9.
       21    -1     0     0   101   102  0.0000000000e+00  0.0000000000e+00 -4.8152592903e+00  4.8152592903e+00  0.0000000000e+00 0. 9.
       -3     1     1     2     0   103  5.2436502460e+00  3.7495798355e+00  1.3739023505e+01  1.5184399353e+01  5.0000000000e-01 0. 9.
       21     1     1     2   103   102 -5.2436502460e+00 -3.7495798355e+00 -1.5541173525e+00  6.6310253800e+00  0.0000000000e+00 0. 9.
#pdf   -3   21  1.700017e-01  4.815259e-02  6.451259e+00  1.948142e-02  2.242477e+00
</event>
<event>
     4  9999  1.000000e+00  5.860215e+00  7.583010e-03  2.302443e-01
        1    -1     0     0   101     0  0.0000000000e+00  0.0000000000e+00  2.7655915913e+01  2.7655915913e+01  0.0000000000e+00 0. 9.
       21    -1     0     0   102   101  0.0000000000e+00  0.0000000000e+00 -9.9396516874e+00  9.9396516874e+00  0.0000000000e+00 0. 9.
        1     1     1     2   103     0  4.1288721821e+00 -4.1578512643e+00  2.6441684723e+01  2.7085178670e+01  3.3000000000e-01 0. 9.
       21     1     1     2   102   103 -4.1288721821e+00  4.1578512643e+00 -8.7254204965e+00  1.0510388931e+01  0.0000000000e+00 0. 9.
#pdf    1   21  2.765592e-01  9.939652e-02  5.860215e+00  2.290415e-01  1.169563e+00
</event>
<event>
     4  9999  1.000000e+00  5.261518e+00  7.574345e-03  2.374329e-01
        2    -1     0     0   101     0  0.0000000000e+00  0.0000000000e+00  9.5099944566e+00  9.5099944566e+00  0.0000000000e+00 0. 9.
       21    -1     0     0   102   101  0.0000000000e+00  0.0000000000e+00 -4.6286166594e+00  4.6286166594e+00  0.0000000000e+00 0. 9.
        2     1     1     2   103     0  7.0523870215e-01 -5.2107554126e+00  6.7459374872e+00  8.5595505827e+00  3.3000000000e-01 0. 9.
       21     1     1     2   102   103 -7.0523870215e-01  5.2107554126e+00 -1.8645596900e+00  5.5790605333e+00  0.0000000000e+00 0. 9.
#pdf    2   21  9.509994e-02  4.628617e-02  5.261518e+00  6.256033e-01  2.302976e+00
</event>
<event>
     4  9999  1.000000e+00  5.398165e+00  7.576404e-03  2.356822e-01
       21    -1     0     0   101   102  0.0000000000e+00  0.0000000000e+00  2.0829163904e+01  2.0829163904e+01  0.0000000000e+00 0. 9.
       21    -1     0     0   103   104  0.0000000000e+00  0.0000000000e+00 -1.9813548810e+00  1.9813548810e+00  0.0000000000e+00 0. 9.
       21     1     1     2   101   104  5.3125626001e+00  9.5752851469e-01  3.2406854175e+00  6.2962071290e+00  0.0000000000e+00 0. 9.
       21     1     1     2   103   102 -5.3125626001e+00 -9.5752851469e-01  1.5607123605e+01  1.6514311656e+01  0.0000000000e+00 0. 9.
#pdf   21   21  2.082916e-01  1.981355e-02  5.398165e+00  5.153182e-01  4.089051e+00
</event>
<event>
     4  9999  1.000000e+00  6.309902e+00  7.588967e-03  2.255592e-01
        2    -1     0     0   101     0  0.0000000000e+00  0.0000000000e+00  4.9720509568e+01  4.9720509568e+01  0.0000000000e+00 0. 9.
       21    -1     0     0   102   103  0.0000000000e+00  0.0000000000e+00 -8.0129191209e-01  8.0129191209e-01  0.0000000000e+00 0. 9.
        2     1     1     2   102     0 -4.1329628237e+00  4.7622558085e+00  2.5118512900e+01  2.5899981706e+01  3.3000000000e-01 0. 9.
       21     1     1     2   101   103  4.1329628237e+00 -4.7622558085e+00  2.3800704756e+01  2.4621819773e+01  0.0000000000e+00 0. 9.
#pdf    2   21  4.972051e-01  8.012919e-03  6.309902e+00  2.018925e-01  6.969447e+00
</event>
<event>
     4  9999  1.000000e+00  5.120601e+00  7.572165e-03  2.393151e-01
       21    -1     0     0   101   102  0.0000000000e+00  0.0000000000e+00  3.3545653175e+00  3.3545653175e+00  0.0000000000e+00 0. 9.
       21    -1     0     0   103   104  0.0000000000e+00  0.0000000000e+00 -1.0748127847e+01  1.0748127847e+01  0.0000000000e+00 0. 9.
       21     1     1     2   101   104 -1.3855568260e+00  4.9295832408e+00 -1.4059349478e-02  5.1206206959e+00  0.0000000000e+00 0. 9.
       21     1     1     2   103   102  1.3855568260e+00 -4.9295832408e+00 -7.3795031798e+00  8.9820724683e+00  0.0000000000e+00 0. 9.
#pdf   21   21  3.354565e-02  1.074813e-01  5.120601e+00  2.900429e+00  1.092070e+00
</event>
<event>
     4  9999  1.000000e+00  7.317155e+00  7.600927e-03  2.167252e-01
        1    -1     0     0   101     0  0.0000000000e+00  0.0000000000e+00  9.6442469484e+00  9.6442469484e+00  0.0000000000e+00 0. 9.
        2    -1     0     0   102     0  0.0000000000e+00  0.0000000000e+00 -2.5096015765e+01  2.5096015765e+01  0.0000000000e+00 0. 9.
        1     1     1     2   102     0  9.7723234955e-02  7.3148555654e+00  7.5996145149e+00  1.0553658254e+01  3.3000000000e-01 0. 9.
        2     1     1     2   101     0 -9.7723234955e-02 -7.3148555654e+00 -2.3051383332e+01  2.4186604460e+01  3.3000000000e-01 0. 9.
#pdf    1    2  9.644247e-02  2.509602e-01  7.317155e+00  3.965148e-01  5.212638e-01
</event>
<event>
     4  9999  1.000000e+00  5.580048e+00  7.579068e-03  2.334574e-01
       21    -1     0     0   102   101  0.0000000000e+00  0.0000000000e+00  4.0074147738e+01  4.0074147738e+01  0.0000000000e+00 0. 9.
       21    -1     0     0   101   103  0.0000000000e+00  0.0000000000e+00 -3.2952074482e+00  3.2952074482e+00  0.0000000000e+00 0. 9.
       21     1     1     2   104   103  4.8476601040e+00 -2.7635354091e+00 -5.6705785051e-01  5.6087869497e+00  0.0000000000e+00 0. 9.
       21     1     1     2   102   104 -4.8476601040e+00  2.7635354091e+00  3.7345998140e+01  3.7760568237e+01  0.0000000000e+00 0. 9.
#pdf   21   21  4.007415e-01  3.295207e-02  5.580048e+00  1.646410e-01  2.957272e+00
</event>
<event>
     4  9999  1.000000e+00  5.145626e+00  7.572556e-03  2.389749e-01
       21    -1     0     0   101   102  0.0000000000e+00  0.0000000000e+00  2.2084564506e+00  2.2084564506e+00  0.0000000000e+00 0. 9.
       21    -1     0     0   103   104  0.0000000000e+00  0.0000000000e+00 -2.2990471679e+01  2.2990471679e+01  0.0000000000e+00 0. 9.
       21     1     1     2   101   104  5.0937358452e+00  7.2892147311e-01 -1.9106681242e+01  1.9787438931e+01  0.0000000000e+00 0. 9.
       21     1     1     2   103   102 -5.0937358452e+00 -7.2892147311e-01 -1.6753339858e+00  5.4114891978e+00  0.0000000000e+00 0. 9.
#pdf   21   21  2.208456e-02  2.299047e-01  5.145626e+00  3.800568e+00  4.617504e-01
</event>
<event>
     4  9999  1.000000e+00  5.243423e+00  7.574068e-03  2.376701e-01
       21    -1     0     0   103   102  0.0000000000e+00  0.0000000000e+00  1.0560050334e+01  1.0560050334e+01  0.0000000000e+00 0. 9.
       -3    -1     0     0     0   101  0.0000000000e+00  0.0000000000e+00 -3.4859342503e+00  3.4859342503e+00  0.0000000000e+00 0. 9.
       21     1     1     2   103   101  5.2345124814e+00  9.0096517702e-03  7.0584687833e+00  8.7876153567e+00  0.0000000000e+00 0. 9.
       -3     1     1     2     0   102 -5.2345124814e+00 -9.0096517702e-03  1.5647300104e-02  5.2583692272e+00  5.0000000000e-01 0. 9.
#pdf   21   -3  1.056005e-01  3.485934e-02  5.243423e+00  1.109850e+00  8.467656e-02
</event>
<event>
     4  9999  1.000000e+00  6.503671e+00  7.591406e-03  2.236970e-01
       21    -1     0     0   102   103  0.0000000000e+00  0.0000000000e+00  7.4876206826e+00  7.4876206826e+00  0.0000000000e+00 0. 9.
        1    -1     0     0   101     0  0.0000000000e+00  0.0000000000e+00 -6.3836541300e+00  6.3836541300e+00  0.0000000000e+00 0. 9.
       21     1     1     2   101   103  6.1865036164e+00 -1.9941762982e+00  2.9031372320e+00  7.1188322000e+00  0.0000000000e+00 0. 9.
        1     1     1     2   102     0 -6.1865036164e+00  1.9941762982e+00 -1.7991706794e+00  6.7524426127e+00  3.3000000000e-01 0. 9.
#pdf   21    1  7.487621e-02  6.383654e-02  6.503671e+00  1.530580e+00  4.170069e-01
</event>
<event>
     4  9999  1.000000e+00  5.085020e+00  7.571605e-03  2.398033e-01
       21    -1     0     0   101   102  0.0000000000e+00  0.0000000000e+00  3.5005187668e+01  3.5005187668e+01  0.0000000000e+00 0. 9.
       21    -1     0     0   103   104  0.0000000000e+00  0.0000000000e+00 -8.2914337110e-01  8.2914337110e-01  0.0000000000e+00 0. 9.
       21     1     1     2   101   104  3.3583255859e+00  3.8182558250e+00  2.3006429366e+01  2.3561689678e+01  0.0000000000e+00 0. 9.
       21     1     1     2   103   102 -3.3583255859e+00 -3.8182558250e+00  1.1169614931e+01  1.2272641361e+01  0.0000000000e+00 0. 9.
#pdf   21   21  3.500519e-01  8.291434e-03  5.085020e+00  2.454090e-01  6.488134e+00
</event>
<event>
     4  9999  1.000000e+00  6.629074e+00  7.592947e-03  2.225369e-01
        1    -1     0     0   101     0  0.0000000000e+00  0.0000000000e+00  3.1369106789e+01  3.1369106789e+01  0.0000000000e+00 0. 9.
       21    -1     0     0   102   101  0.0000000000e+00  0.0000000000e+00 -6.3565951426e+00  6.3565951426e+00  0.0000000000e+00 0. 9.
        1     1     1     2   103     0 -5.0263192399e+00 -4.3207332438e+00  2.9160812732e+01  2.9906429410e+01  3.3000000000e-01 0. 9.
       21     1     1     2   102   103  5.0263192399e+00  4.3207332438e+00 -4.1483010858e+00  7.8192725214e+00  0.0000000000e+00 0. 9.
#pdf    1   21  3.136911e-01  6.356595e-02  6.629074e+00  1.878104e-01  1.774792e+00
</event>
<event>
     4  9999  1.000000e+00  5.540349e+00  7.578494e-03  2.339332e-01
       21    -1     0     0   102   101  0.0000000000e+00  0.0000000000e+00  1.4090566190e+00  1.4090566190e+00  0.0000000000e+00 0. 9.
        2    -1     0     0   101     0  0.0000000000e+00  0.0000000000e+00 -2.6533992239e+01  2.6533992239e+01  0.0000000000e+00 0. 9.
       21     1     1     2   102   103  1.2256874027e+00  5.3989324884e+00 -6.6464994164e+00  8.6502448587e+00  0.0000000000e+00 0. 9.
        2     1     1     2   103     0 -1.2256874027e+00 -5.3989324884e+00 -1.8478436203e+01  1.9292803999e+01  3.3000000000e-01 0. 9.
#pdf   21    2  1.409057e-02  2.653399e-01  5.540349e+00  5.003017e+00  5.222760e-01
</event>
<event>
     4  9999  1.000000e+00  5.175996e+00  7.573029e-03  2.385655e-01
       -2    -1     0     0     0   101  0.0000000000e+00  0.0000000000e+00  4.6026775481e+00  4.6026775481e+00  0.0000000000e+00 0. 9.
       21    -1     0     0   103   102  0.0000000000e+00  0.0000000000e+00 -8.4525442132e+00  8.4525442132e+00  0.0000000000e+00 0. 9.
       -2     1     1     2     0   102 -1.4346578048e+00 -4.9694273139e+00  1.7135763482e+00  5.4588180723e+00  3.3000000000e-01 0. 9.
       21     1     1     2   103   101  1.4346578048e+00  4.9694273139e+00 -5.5634430132e+00  7.5964036890e+00  0.0000000000e+00 0. 9.
#pdf   -2   21  4.602678e-02  8.452544e-02  5.175996e+00  1.552711e-01  1.382124e+00
</event>
<event>
     4  9999  1.000000e+00  5.088983e+00  7.571668e-03  2.397487e-01
        2    -1     0     0   101     0  0.0000000000e+00  0.0000000000e+00  1.9550953000e+01  1.9550953000e+01  0.0000000000e+00 0. 9.
       21    -1     0     0   102   101  0.0000000000e+00  0.0000000000e+00 -1.4301797376e+00  1.4301797376e+00  0.0000000000e+00 0. 9.
        2     1     1     2   103     0  2.7103102603e+00 -4.3013443843e+00  1.1916368956e+01  1.2959787588e+01  3.3000000000e-01 0. 9.
       21     1     1     2   102   103 -2.7103102603e+00  4.3013443843e+00  6.2044043066e+00  8.0213451503e+00  0.0000000000e+00 0. 9.
#pdf    2   21  1.955095e-01  1.430180e-02  5.088983e+00  6.005937e-01  4.878042e+00
</event>
<event>
     4  9999  1.000000e+00  7.178843e+00  7.599384e-03  2.178245e-01
       21    -1     0     0   102   103  0.0000000000e+00  0.0000000000e+00  6.8672282950e+00  6.8672282950e+00  0.0000000000e+00 0. 9.
        2    -1     0     0   101     0  0.0000000000e+00  0.0000000000e+00 -9.2647430531e+00  9.2647430531e+00  0.0000000000e+00 0. 9.
       21     1     1     2   101   103 -5.9676995982e+00  3.9847524134e+00  2.3159770998e+00  7.5402546520e+00  0.0000000000e+00 0. 9.
        2     1     1     2   102     0  5.9676995982e+00 -3.9847524134e+00 -4.7134918578e+00  8.5917166960e+00  3.3000000000e-01 0. 9.
#pdf   21    2  6.867228e-02  9.264743e-02  7.178843e+00  1.650478e+00  6.232016e-01
</event>
<event>
     4  9999  1.000000e+00  5.154182e+00  7.572689e-03  2.388592e-01
       21    -1     0     0   101   102  0.0000000000e+00  0.0000000000e+00  6.5369881105e+00  6.5369881105e+00  0.0000000000e+00 0. 9.
       21    -1     0     0   103   104  0.0000000000e+00  0.0000000000e+00 -5.1337948376e+00  5.1337948376e+00  0.0000000000e+00 0. 9.
       21     1     1     2   101   104 -4.4390927835e+00 -2.6191688588e+00  3.3655317314e+00  6.1556798233e+00  0.0000000000e+00 0. 9.
       21     1     1     2   103   102  4.4390927835e+00  2.6191688588e+00 -1.9623384584e+00  5.5151031248e+00  0.0000000000e+00 0. 9.
#pdf   21   21  6.536988e-02  5.133795e-02  5.154182e+00  1.741432e+00  2.123807e+00
</event>
<event>
     4  9999  1.000000e+00  5.449935e+00  7.577172e-03  2.350370e-01
       21    -1     0     0   102   101  0.0000000000e+00  0.0000000000e+00  1.8540077299e+01  1.8540077299e+01  0.0000000000e+00 0. 9.
       21    -1     0     0   104   103  0.0000000000e+00  0.0000000000e+00 -1.6498523041e+01  1.6498523041e+01  0.0000000000e+00 0. 9.
       21     1     1     2   104   101 -2.3511852701e+00  4.9166781047e+00 -1.5626231739e+01  1.6549347846e+01  0.0000000000e+00 0. 9.
       21     1     1     2   102   103  2.3511852701e+00 -4.9166781047e+00  1.7667785997e+01  1.8489252494e+01  0.0000000000e+00 0. 9.
#pdf   21   21  1.854008e-01  1.649852e-01  5.449935e+00  5.920757e-01  6.785261e-01
</event>
<event>
     4  9999  1.000000e+00  6.477212e+00  7.591077e-03  2.239462e-01
       21    -1     0     0   102   101  0.0000000000e+00  0.0000000000e+00  1.3517683139e+00  1.3517683139e+00  0.0000000000e+00 0. 9.
       21    -1     0     0   103   102  0.0000000000e+00  0.0000000000e+00 -3.2581627748e+01  3.2581627748e+01  0.0000000000e+00 0. 9.
       21     1     1     2   104   101 -4.8039419465e+00  4.3447005674e+00 -1.9309638802e+01  2.0367042788e+01  0.0000000000e+00 0. 9.
       21     1     1     2   103   104  4.8039419465e+00 -4.3447005674e+00 -1.1920220632e+01  1.3566353274e+01  0.0000000000e+00 0. 9.
#pdf   21   21  1.351768e-02  3.258163e-01  6.477212e+00  5.264872e+00  2.526632e-01
</event>
<event>
     4  9999  1.000000e+00  5.338794e+00  7.575516e-03  2.364341e-01
        1    -1     0     0   101     0  0.0000000000e+00  0.0000000000e+00  5.2136251940e+00  5.2136251940e+00  0.0000000000e+00 0. 9.
        1    -1     0     0   102     0  0.0000000000e+00  0.0000000000e+00 -2.4126198663e+01  2.4126198663e+01  0.0000000000e+00 0. 9.
        1     1     1     2   102     0  1.7390867327e+00 -5.0451587350e+00  3.4393216317e+00  6.3573487092e+00  3.3000000000e-01 0. 9.
        1     1     1     2   101     0 -1.7390867327e+00  5.0451587350e+00 -2.2351895101e+01  2.2982475148e+01  3.3000000000e-01 0. 9.
#pdf    1    1  5.213625e-02  2.412620e-01  5.338794e+00  4.208717e-01  2.693616e-01
</event>
<event>
     4  9999  1.000000e+00  5.867533e+00  7.583111e-03  2.301636e-01
       21    -1     0     0   102   101  0.0000000000e+00  0.0000000000e+00  3.7183458892e+00  3.7183458892e+00  0.0000000000e+00 0. 9.
       21    -1     0     0   104   103  0.0000000000e+00  0.0000000000e+00 -3.0147091016e+01  3.0147091016e+01  0.0000000000e+00 0. 9.
       21     1     1     2   104   101  5.3312020658e+00  2.4507608926e+00 -2.7309012062e+01  2.7932240946e+01  0.0000000000e+00 0. 9.
       21     1     1     2   102   103 -5.3312020658e+00 -2.4507608926e+00  8.8026693549e-01  5.9331959597e+00  0.0000000000e+00 0. 9.
#pdf   21   21  3.718346e-02  3.014709e-01  5.867533e+00  2.722559e+00  3.035030e-01
</event>
<event>
     4  9999  1.000000e+00  6.020160e+00  7.585179e-03  2.285156e-01
       21    -1     0     0   102   103  0.0000000000e+00  0.0000000000e+00  2.9013396859e+00  2.9013396859e+00  0.0000000000e+00 0. 9.
        2    -1     0     0   101     0  0.0000000000e+00  0.0000000000e+00 -3.4001575218e+01  3.4001575218e+01  0.0000000000e+00 0. 9.
       21     1     1     2   101   103 -5.8067709781e+00 -1.5823216677e+00 -8.7409418354e-01  6.0816421872e+00  0.0000000000e+00 0. 9.
        2     1     1     2   102     0  5.8067709781e+00  1.5823216677e+00 -3.0226141348e+01  3.0821272716e+01  3.3000000000e-01 0. 9.
#pdf   21    2  2.901340e-02  3.400158e-01  6.020160e+00  3.244881e+00  4.150395e-01
</event>
<event>
     4  9999  1.000000e+00  5.396331e+00  7.576377e-03  2.357052e-01
       21    -1     0     0   102   103  0.0000000000e+00  0.0000000000e+00  1.7948086965e+00  1.7948086965e+00  0.0000000000e+00 0. 9.
        1    -1     0     0   101     0  0.0000000000e+00  0.0000000000e+00 -1.8902730774e+01  1.8902730774e+01  0.0000000000e+00 0. 9.
       21     1     1     2   101   103 -1.6638687397e+00  5.1288609447e+00 -4.6550466529e+00  7.1234214472e+00  0.0000000000e+00 0. 9.
        1     1     1     2   102     0  1.6638687397e+00 -5.1288609447e+00 -1.2452875425e+01  1.3574118024e+01  3.3000000000e-01 0. 9.
#pdf   21    1  1.794809e-02  1.890273e-01  5.396331e+00  4.335957e+00  3.230281e-01
</event>
<event>
     4  9999  1.000000e+00  7.976480e+00  7.607912e-03  2.118909e-01
       21    -1     0     0   102   103  0.0000000000e+00  0.0000000000e+00  1.9563984356e+01  1.9563984356e+01  0.0000000000e+00 0. 9.
        1    -1     0     0   101     0  0.0000000000e+00  0.0000000000e+00 -4.1751601994e+00  4.1751601994e+00  0.0000000000e+00 0. 9.
       21     1     1     2   101   103 -7.6435300799e+00 -2.2711845891e+00  2.1127199302e+00  8.2489646031e+00  0.0000000000e+00 0. 9.
        1     1     1     2   102     0  7.6435300799e+00  2.2711845891e+00  1.3276104226e+01  1.5490179952e+01  3.3000000000e-01 0. 9.
#pdf   21    1  1.956398e-01  4.175160e-02  7.976480e+00  5.120884e-01  4.332793e-01
</event>
<event>
     4  9999  1.000000e+00  5.192440e+00  7.573283e-03  2.383454e-01
       21    -1     0     0   102   101  0.0000000000e+00  0.0000000000e+00  5.2942415364e+00  5.2942415364e+00  0.0000000000e+00 0. 9.
        2    -1     0     0   101     0  0.0000000000e+00  0.0000000000e+00 -1.1460632759e+01  1.1460632759e+01  0.0000000000e+00 0. 9.
       21     1     1     2   102   103 -5.0591078883e+00  1.1587368922e+00  3.1600582242e+00  6.0764473001e+00  0.0000000000e+00 0. 9.
        2     1     1     2   103     0  5.0591078883e+00 -1.1587368922e+00 -9.3264494473e+00  1.0678426996e+01  3.3000000000e-01 0. 9.
#pdf   21    2  5.294242e-02  1.146063e-01  5.192440e+00  2.073090e+00  6.308703e-01
</event>
<event>
     4  9999  1.000000e+00  5.034111e+00  7.570798e-03  2.405115e-01
       21    -1     0     0   102   103  0.0000000000e+00  0.0000000000e+00  4.8474977047e+00  4.8474977047e+00  0.0000000000e+00 0. 9.
        2    -1     0     0   101     0  0.0000000000e+00  0.0000000000e+00 -7.1783687945e+00  7.1783687945e+00  0.0000000000e+00 0. 9.
       21     1     1     2   101   103  1.1298141841e+00 -4.9016476608e+00  1.9673356126e+00  5.4012072070e+00  0.0000000000e+00 0. 9.
        2     1     1     2   102     0 -1.1298141841e+00  4.9016476608e+00 -4.2982067024e+00  6.6246592922e+00  3.3000000000e-01 0. 9.
#pdf   21    2  4.847498e-02  7.178369e-02  5.034111e+00  2.219007e+00  6.104247e-01
</event>
<event>
     4  9999  1.000000e+00  7.228541e+00  7.599942e-03  2.174258e-01
        2    -1     0     0   101     0  0.0000000000e+00  0.0000000000e+00  1.7438305293e+01  1.7438305293e+01  0.0000000000e+00 0. 9.
       21    -1     0     0   102   101  0.0000000000e+00  0.0000000000e+00 -3.3631216906e+00  3.3631216906e+00  0.0000000000e+00 0. 9.
        2     1     1     2   103     0 -6.8923415809e+00  2.1677023881e+00  1.0473826483e+01  1.2728442454e+01  3.3000000000e-01 0. 9.
       21     1     1     2   102   103  6.8923415809e+00 -2.1677023881e+00  3.6013571193e+00  8.0729845294e+00  0.0000000000e+00 0. 9.
#pdf    2   21  1.743831e-01  3.363122e-02  7.228541e+00  5.998046e-01  2.958765e+00
</event>
<event>
     4  9999  1.000000e+00  5.502615e+00  7.577945e-03  2.343904e-01
       21    -1     0     0   101   102  0.0000000000e+00  0.0000000000e+00  1.9102433824e+01  1.9102433824e+01  0.0000000000e+00 0. 9.
       21    -1     0     0   103   104  0.0000000000e+00  0.0000000000e+00 -5.3277064385e+00  5.3277064385e+00  0.0000000000e+00 0. 9.
       21     1     1     2   101   104 -3.4708818071e+00 -4.2698654148e+00  1.7125346835e+01  1.7987670094e+01  0.0000000000e+00 0. 9.
       21     1     1     2   103   102  3.4708818071e+00  4.2698654148e+00 -3.3506194496e+00  6.4424701688e+00  0.0000000000e+00 0. 9.
#pdf   21   21  1.910243e-01  5.327706e-02  5.502615e+00  5.702060e-01  2.064822e+00
</event>
<event>
     4  9999  1.000000e+00  5.974174e+00  7.584561e-03  2.290052e-01
        2    -1     0     0   101     0  0.0000000000e+00  0.0000000000e+00  1.3165009957e+01  1.3165009957e+01  0.0000000000e+00 0. 9.
       21    -1     0     0   102   103  0.0000000000e+00  0.0000000000e+00 -3.2916965525e+00  3.2916965525e+00  0.0000000000e+00 0. 9.
        2     1     1     2   102     0 -5.8552977170e+00  1.1667948070e+00  8.3935254306e+00  1.0305633927e+01  3.3000000000e-01 0. 9.
       21     1     1     2   101   103  5.8552977170e+00 -1.1667948070e+00  1.4797879744e+00  6.1510725833e+00  0.0000000000e+00 0. 9.
#pdf    2   21  1.316501e-01  3.291697e-02  5.974174e+00  6.272103e-01  2.972772e+00
</event>
<event>
     4  9999  1.000000e+00  6.591396e+00  7.592487e-03  2.228819e-01
        2    -1     0     0   101     0  0.0000000000e+00  0.0000000000e+00  2.1711027693e+01  2.1711027693e+01  0.0000000000e+00 0. 9.
       21    -1     0     0   102   101  0.0000000000e+00  0.0000000000e+00 -4.8162285481e+00  4.8162285481e+00  0.0000000000e+00 0. 9.
        2     1     1     2   103     0 -6.1243459851e+00 -2.4323366711e+00  1.8587378309e+01  1.9723676326e+01  3.3000000000e-01 0. 9.
       21     1     1     2   102   103  6.1243459851e+00  2.4323366711e+00 -1.6925791642e+00  6.8035799146e+00  0.0000000000e+00 0. 9.
#pdf    2   21  2.171103e-01  4.816229e-02  6.591396e+00  5.661889e-01  2.242660e+00
</event>
<event>
     4  9999  1.000000e+00  6.708682e+00  7.593911e-03  2.218179e-01
       21    -1     0     0   102   101  0.0000000000e+00  0.0000000000e+00  1.0202280476e+01  1.0202280476e+01  0.0000000000e+00 0. 9.
        1    -1     0     0   101     0  0.0000000000e+00  0.0000000000e+00 -2.9885221449e+01  2.9885221449e+01  0.0000000000e+00 0. 9.
       21     1     1     2   102   103 -5.0165746866e+00 -4.4533531238e+00  8.6631248551e+00  1.0956646745e+01  0.0000000000e+00 0. 9.
        1     1     1     2   103     0  5.0165746866e+00  4.4533531238e+00 -2.8346065828e+01  2.9130855181e+01  3.3000000000e-01 0. 9.
#pdf   21    1  1.020228e-01  2.988522e-01  6.708682e+00  1.124826e+00  2.015992e-01
</event>
<event>
     4  9999  1.000000e+00  6.833897e+00  7.595404e-03  2.207132e-01
        2    -1     0     0   101     0  0.0000000000e+00  0.0000000000e+00  4.3412763838e+01  4.3412763838e+01  0.0000000000e+00 0. 9.
        2    -1     0     0   102     0  0.0000000000e+00  0.0000000000e+00 -2.9845724917e+01  2.9845724917e+01  0.0000000000e+00 0. 9.
        2     1     1     2   101     0  4.0295409077e+00 -5.5191508656e+00 -2.9178016479e+01  2.9969380572e+01  3.3000000000e-01 0. 9.
        2     1     1     2   102     0 -4.0295409077e+00  5.5191508656e+00  4.2745055400e+01  4.3289108184e+01  3.3000000000e-01 0. 9.
#pdf    2    2  4.341276e-01  2.984572e-01  6.833897e+00  2.750072e-01  4.637142e-01
</event>
<event>
     4  9999  1.000000e+00  5.067940e+00  7.571335e-03  2.400397e-01
       21    -1     0     0   102   101  0.0000000000e+00  0.0000000000e+00  1.6671167909e+01  1.6671167909e+01  0.0000000000e+00 0. 9.
       21    -1     0     0   104   103  0.0000000000e+00  0.0000000000e+00 -1.6280125411e+00  1.6280125411e+00  0.0000000000e+00 0. 9.
       21     1     1     2   104   101  4.3985789689e+00  2.5172437978e+00  5.4017613079e+00  7.4069587896e+00  0.0000000000e+00 0. 9.
       21     1     1     2   102   103 -4.3985789689e+00 -2.5172437978e+00  9.6413940598e+00  1.0892221660e+01  0.0000000000e+00 0. 9.
#pdf   21   21  1.667117e-01  1.628013e-02  5.067940e+00  6.784339e-01  4.533889e+00
</event>
<event>
     4  9999  1.000000e+00  5.631589e+00  7.579808e-03  2.328475e-01
       21    -1     0     0   102   101  0.0000000000e+00  0.0000000000e+00  1.4710585964e+01  1.4710585964e+01  0.0000000000e+00 0. 9.
       21    -1     0     0   104   103  0.0000000000e+00  0.0000000000e+00 -2.2456782445e+00  2.2456782445e+00  0.0000000000e+00 0. 9.
       21     1     1     2   104   101  5.4438512558e+00 -1.4419714164e+00  4.5374466366e+00  7.2320965177e+00  0.0000000000e+00 0. 9.
       21     1     1     2   102   103 -5.4438512558e+00  1.4419714164e+00  7.9274610831e+00  9.7241676911e+00  0.0000000000e+00 0. 9.
#pdf   21   21  1.471059e-01  2.245678e-02  5.631589e+00  7.692500e-01  3.807810e+00
</event>
<event>
     4  9999  1.000000e+00  5.847210e+00  7.582831e-03  2.303881e-01
       21    -1     0     0   102   103  0.0000000000e+00  0.0000000000e+00  1.9119656573e+00  1.9119656573e+00  0.0000000000e+00 0. 9.
        2    -1     0     0   101     0  0.0000000000e+00  0.0000000000e+00 -3.5265022745e+01  3.5265022745e+01  0.0000000000e+00 0. 9.
       21     1     1     2   101   103  5.7203496562e+00 -1.1999422596e+00 -2.9715235488e+01  3.0284608001e+01  0.0000000000e+00 0. 9.
        2     1     1     2   102     0 -5.7203496562e+00  1.1999422596e+00 -3.6378215993e+00  6.8923804019e+00  3.3000000000e-01 0. 9.
#pdf   21    2  1.911966e-02  3.526502e-01  5.847210e+00  4.223797e+00  3.993130e-01
</event>
<event>
     4  9999  1.000000e+00  5.052213e+00  7.571086e-03  2.402584e-01
       21    -1     0     0   101   102  0.0000000000e+00  0.0000000000e+00  1.2709371397e+00  1.2709371397e+00  0.0000000000e+00 0. 9.
       21    -1     0     0   102   103  0.0000000000e+00  0.0000000000e+00 -2.1168444856e+01  2.1168444856e+01  0.0000000000e+00 0. 9.
       21     1     1     2   101   104  4.6079562809e+00  2.0716162488e+00 -7.4087054345e+00  8.9673725909e+00  0.0000000000e+00 0. 9.
       21     1     1     2   104   103 -4.6079562809e+00 -2.0716162488e+00 -1.2488802281e+01  1.3472009404e+01  0.0000000000e+00 0. 9.
#pdf   21   21  1.270937e-02  2.116844e-01  5.052213e+00  5.193473e+00  5.128756e-01
</event>
<event>
     4  9999  1.000000e+00  5.153020e+00  7.572671e-03  2.388749e-01
       21    -1     0     0   102   103  0.0000000000e+00  0.0000000000e+00  7.8570611869e+00  7.8570611869e+00  0.0000000000e+00 0. 9.
        1    -1     0     0   101     0  0.0000000000e+00  0.0000000000e+00 -2.9209571890e+01  2.9209571890e+01  0.0000000000e+00 0. 9.
       21     1     1     2   101   103  4.6394109011e+00  2.2412448824e+00  6.7511476689e+00  8.4926619490e+00  0.0000000000e+00 0. 9.
        1     1     1     2   102     0 -4.6394109011e+00 -2.2412448824e+00 -2.8103658372e+01  2.8573971128e+01  3.3000000000e-01 0. 9.
#pdf   21    1  7.857061e-02  2.920957e-01  5.153020e+00  1.479411e+00  2.185729e-01
</event>
<event>
     4  9999  1.000000e+00  5.456155e+00  7.577263e-03  2.349602e-01
       21    -1     0     0   101   102  0.0000000000e+00  0.0000000000e+00  7.1187493756e+00  7.1187493756e+00  0.0000000000e+00 0. 9.
       21    -1     0     0   103   104  0.0000000000e+00  0.0000000000e+00 -4.3075701019e+00  4.3075701019e+00  0.0000000000e+00 0. 9.
       21     1     1     2   101   104  3.7873903892e+00 -3.9275057901e+00  4.2960770352e-01  5.4730421587e+00  0.0000000000e+00 0. 9.
       21     1     1     2   103   102 -3.7873903892e+00  3.9275057901e+00  2.3815715702e+00  5.9532773189e+00  0.0000000000e+00 0. 9.
#pdf   21   21  7.118749e-02  4.307570e-02  5.456155e+00  1.614788e+00  2.435686e+00
</event>
<event>
     4  9999  1.000000e+00  6.130090e+00  7.586636e-03  2.273683e-01
       21    -1     0     0   101   102  0.0000000000e+00  0.0000000000e+00  2.7072850727e+01  2.7072850727e+01  0.0000000000e+00 0. 9.
       21    -1     0     0   103   104  0.0000000000e+00  0.0000000000e+00 -3.3214061507e+00  3.3214061507e+00  0.0000000000e+00 0. 9.
       21     1     1     2   101   104 -4.4233301120e+00  4.2440732841e+00  2.8105223024e-01  6.1365297748e+00  0.0000000000e+00 0. 9.
       21     1     1     2   103   102  4.4233301120e+00 -4.2440732841e+00  2.3470392346e+01  2.4257727103e+01  0.0000000000e+00 0. 9.
#pdf   21   21  2.707285e-01  3.321406e-02  6.130090e+00  3.530464e-01  2.958978e+00
</event>
<event>
     4  9999  1.000000e+00  5.265939e+00  7.574412e-03  2.373751e-01
        1    -1     0     0   101     0  0.0000000000e+00  0.0000000000e+00  3.5665146135e+00  3.5665146135e+00  0.0000000000e+00 0. 9.
        1    -1     0     0   102     0  0.0000000000e+00  0.0000000000e+00 -3.3135882273e+01  3.3135882273e+01  0.0000000000e+00 0. 9.
        1     1     1     2   101     0 -4.6554073613e+00 -2.4559613719e+00 -3.0831764460e+01  3.1279564633e+01  3.3000000000e-01 0. 9.
        1     1     1     2   102     0  4.6554073613e+00  2.4559613719e+00  1.2623968004e+00  5.4228322528e+00  3.3000000000e-01 0. 9.
#pdf    1    1  3.566515e-02  3.313588e-01  5.265939e+00  4.289311e-01  1.799853e-01
</event>
<event>
     4  9999  1.000000e+00  5.396154e+00  7.576375e-03  2.357074e-01
        1    -1     0     0   101     0  0.0000000000e+00  0.0000000000e+00  1.6530420398e+01  1.6530420398e+01  0.0000000000e+00 0. 9.
       21    -1     0     0   102   103  0.0000000000e+00  0.0000000000e+00 -2.6358369239e+00  2.6358369239e+00  0.0000000000e+00 0. 9.
        1     1     1     2   102     0  4.9168536328e+00 -2.2150972184e+00  1.2467499892e+01  1.3587845999e+01  3.3000000000e-01 0. 9.
       21     1     1     2   101   103 -4.9168536328e+00  2.2150972184e+00  1.4270835816e+00  5.5784113224e+00  0.0000000000e+00 0. 9.
#pdf    1   21  1.653042e-01  2.635837e-02  5.396154e+00  3.461681e-01  3.423539e+00
</event>
<event>
     4  9999  1.000000e+00  6.982487e+00  7.597142e-03  2.194420e-01
        2    -1     0     0   101     0  0.0000000000e+00  0.0000000000e+00  4.2751282036e+00  4.2751282036e+00  0.0000000000e+00 0. 9.
       21    -1     0     0   102   101  0.0000000000e+00  0.0000000000e+00 -3.4158052543e+01  3.4158052543e+01  0.0000000000e+00 0. 9.
        2     1     1     2   103     0 -4.1826378767e+00 -5.5894978112e+00  7.3678637880e-01  7.0277094104e+00  3.3000000000e-01 0. 9.
       21     1     1     2   102   103  4.1826378767e+00  5.5894978112e+00 -3.0619710718e+01  3.1405471336e+01  0.0000000000e+00 0. 9.
#pdf    2   21  4.275128e-02  3.415805e-01  6.982487e+00  5.870097e-01  2.213118e-01
</event>
<event>
     4  9999  1.000000e+00  7.368843e+00  7.601496e-03  2.163225e-01
       21    -1     0     0   102   101  0.0000000000e+00  0.0000000000e+00  5.7179476338e+00  5.7179476338e+00  0.0000000000e+00 0. 9.
        2    -1     0     0   101     0  0.0000000000e+00  0.0000000000e+00 -9.5616278399e+00  9.5616278399e+00  0.0000000000e+00 0. 9.
       21     1     1     2   102   103 -6.9538439341e+00  2.4268983672e+00 -2.5516331981e+00  7.7946528545e+00  0.0000000000e+00 0. 9.
        2     1     1     2   103     0  6.9538439341e+00 -2.4268983672e+00 -1.2920470080e+00  7.4849226192e+00  3.3000000000e-01 0. 9.
#pdf   21    2  5.717948e-02  9.561628e-02  7.368843e+00  1.941784e+00  6.237621e-01
</event>
<event>
     4  9999  1.000000e+00  7.681325e+00  7.604857e-03  2.139769e-01
       21    -1     0     0   102   103  0.0000000000e+00  0.0000000000e+00  6.8359747118e+00  6.8359747118e+00  0.0000000000e+00 0. 9.
        2    -1     0     0   101     0  0.0000000000e+00  0.0000000000e+00 -1.2466457049e+01  1.2466457049e+01  0.0000000000e+00 0. 9.
       21     1     1     2   101   103  4.6775858541e+00 -6.0897659740e+00  2.5370686570e+00  8.0871364778e+00  0.0000000000e+00 0. 9.
        2     1     1     2   102     0 -4.6775858541e+00  6.0897659740e+00 -8.1675509938e+00  1.1215295283e+01  3.3000000000e-01 0. 9.
#pdf   21    2  6.835975e-02  1.246646e-01  7.681325e+00  1.652713e+00  6.226813e-01
</event>
<event>
     4  9999  1.000000e+00  6.752914e+00  7.594442e-03  2.214241e-01
        2    -1     0     0   101     0  0.0000000000e+00  0.0000000000e+00  2.7578910898e+01  2.7578910898e+01  0.0000000000e+00 0. 9.
       21    -1     0     0   102   101  0.0000000000e+00  0.0000000000e+00 -3.1424344333e+00  3.1424344333e+00  0.0000000000e+00 0. 9.
        2     1     1     2   103     0 -6.6071357473e+00 -1.3852623778e+00  2.2792146559e+01  2.3773178992e+01  3.3000000000e-01 0. 9.
       21     1     1     2   102   103  6.6071357473e+00  1.3852623778e+00  1.6443299061e+00  6.9481663393e+00  0.0000000000e+00 0. 9.
#pdf    2   21  2.757891e-01  3.142434e-02  6.752914e+00  4.949612e-01  3.095937e+00
</event>
<event>
     4  9999  1.000000e+00  5.820416e+00  7.582462e-03  2.306859e-01
        1    -1     0     0   101     0  0.0000000000e+00  0.0000000000e+00  8.2687192094e+00  8.2687192094e+00  0.0000000000e+00 0. 9.
        2    -1     0     0   102     0  0.0000000000e+00  0.0000000000e+00 -3.8751769514e+01  3.8751769514e+01  0.0000000000e+00 0. 9.
        1     1     1     2   102     0 -3.9740534359e+00  4.2511916713e+00  6.9874192914e+00  9.0993768848e+00  3.3000000000e-01 0. 9.
        2     1     1     2   101     0  3.9740534359e+00 -4.2511916713e+00 -3.7470469596e+01  3.7921111839e+01  3.3000000000e-01 0. 9.
#pdf    1    2  8.268719e-02  3.875177e-01  5.820416e+00  4.071271e-01  3.501338e-01
</event>
<event>
     4  9999  1.000000e+00  5.197886e+00  7.573367e-03  2.382728e-01
       21    -1     0     0   102   101  0.0000000000e+00  0.0000000000e+00  1.6885726593e+01  1.6885726593e+01  0.0000000000e+00 0. 9.
       21    -1     0     0   101   103  0.0000000000e+00  0.0000000000e+00 -2.4929432231e+00  2.4929432231e+00  0.0000000000e+00 0. 9.
       21     1     1     2   104   103 -1.4290124125e+00  4.9975936178e+00  1.3976018385e+00  5.3825002873e+00  0.0000000000e+00 0. 9.
       21     1     1     2   102   104  1.4290124125e+00 -4.9975936178e+00  1.2995181531e+01  1.3996169528e+01  0.0000000000e+00 0. 9.
#pdf   21   21  1.688573e-01  2.492943e-02  5.197886e+00  6.658856e-01  3.530474e+00
</event>
<event>
     4  9999  1.000000e+00  6.494985e+00  7.591298e-03  2.237786e-01
       21    -1     0     0   101   102  0.0000000000e+00  0.0000000000e+00  3.4393097843e+00  3.4393097843e+00  0.0000000000e+00 0. 9.
       21    -1     0     0   103   104  0.0000000000e+00  0.0000000000e+00 -1.5836938327e+01  1.5836938327e+01  0.0000000000e+00 0. 9.
       21     1     1     2   101   104 -1.5432000564e+00  6.3089908416e+00 -1.0775792757e+01  1.2581833785e+01  0.0000000000e+00 0. 9.
       21     1     1     2   103   102  1.5432000564e+00 -6.3089908416e+00 -1.6218357856e+00  6.6944143261e+00  0.0000000000e+00 0. 9.
#pdf   21   21  3.439310e-02  1.583694e-01  6.494985e+00  2.896547e+00  6.912478e-01
</event>
<event>
     4  9999  1.000000e+00  7.210848e+00  7.599743e-03  2.175672e-01
       21    -1     0     0   101   102  0.0000000000e+00  0.0000000000e+00  1.9670858638e+00  1.9670858638e+00  0.0000000000e+00 0. 9.
       21    -1     0     0   103   104  0.0000000000e+00  0.0000000000e+00 -3.3444792400e+01  3.3444792400e+01  0.0000000000e+00 0. 9.
       21     1     1     2   101   104 -6.0302170457e+00  3.9538353691e+00 -2.3845919323e+01  2.4912330283e+01  0.0000000000e+00 0. 9.
       21     1     1     2   103   102  6.0302170457e+00 -3.9538353691e+00 -7.6317872128e+00  1.0499547981e+01  0.0000000000e+00 0. 9.
#pdf   21   21  1.967086e-02  3.344479e-01  7.210848e+00  4.259003e+00  2.283452e-01
</event>
<event>
     4  9999  1.000000e+00  5.646133e+00  7.580015e-03  2.326770e-01
       -1    -1     0     0     0   101  0.0000000000e+00  0.0000000000e+00  4.3939913170e+01  4.3939913170e+01  0.0000000000e+00 0. 9.
       21    -1     0     0   103   102  0.0000000000e+00  0.0000000000e+00 -4.6663825370e+00  4.6663825370e+00  0.0000000000e+00 0. 9.
       -1     1     1     2     0   102 -5.6313111270e+00 -3.9835900282e-01  4.1970513898e+01  4.2349773220e+01  3.3000000000e-01 0. 9.
       21     1     1     2   103   101  5.6313111270e+00  3.9835900282e-01 -2.6969832649e+00  6.2565224874e+00  0.0000000000e+00 0. 9.
#pdf   -1   21  4.393991e-01  4.666383e-02  5.646133e+00  4.137230e-03  2.293470e+00
</event>
<event>
     4  9999  1.000000e+00  5.390782e+00  7.576294e-03  2.357750e-01
        2    -1     0     0   101     0  0.0000000000e+00  0.0000000000e+00  2.5003462806e+01  2.5003462806e+01  0.0000000000e+00 0. 9.
       21    -1     0     0   102   103  0.0000000000e+00  0.0000000000e+00 -4.3623044254e+01  4.3623044254e+01  0.0000000000e+00 0. 9.
        2     1     1     2   102     0 -5.5358043718e-01  5.3621477768e+00  2.4542190959e+01  2.5129407417e+01  3.3000000000e-01 0. 9.
       21     1     1     2   101   103  5.5358043718e-01 -5.3621477768e+00 -4.3161772406e+01  4.3497099643e+01  0.0000000000e+00 0. 9.
#pdf    2   21  2.500346e-01  4.362304e-01  5.390782e+00  5.426502e-01  1.252669e-01
</event>
<event>
     4  9999  1.000000e+00  5.332042e+00  7.575414e-03  2.365205e-01
        2    -1     0     0   101     0  0.0000000000e+00  0.0000000000e+00  4.2419902901e+01  4.2419902901e+01  0.0000000000e+00 0. 9.
       21    -1     0     0   102   101  0.0000000000e+00  0.0000000000e+00 -8.0746965903e-01  8.0746965903e-01  0.0000000000e+00 0. 9.
        2     1     1     2   103     0 -6.8713044011e-01 -5.2833084379e+00  2.9726562819e+01  3.0202035252e+01  3.3000000000e-01 0. 9.
       21     1     1     2   102   103  6.8713044011e-01  5.2833084379e+00  1.1885870422e+01  1.3025337308e+01  0.0000000000e+00 0. 9.
#pdf    2   21  4.241990e-01  8.074697e-03  5.332042e+00  3.055620e-01  6.662232e+00
</event>
<event>
     4  9999  1.000000e+00  5.431296e+00  7.576896e-03  2.352682e-01
       21    -1     0     0   102   103  0.0000000000e+00  0.0000000000e+00  7.2552428529e+00  7.2552428529e+00  0.0000000000e+00 0. 9.
        4    -1     0     0   101     0  0.0000000000e+00  0.0000000000e+00 -9.7422799607e+00  9.7422799607e+00  0.0000000000e+00 0. 9.
       21     1     1     2   101   103  4.8990786572e+00 -2.2428454695e+00  5.2020170182e+00  7.4894798582e+00  0.0000000000e+00 0. 9.
        4     1     1     2   102     0 -4.8990786572e+00  2.2428454695e+00 -7.6890541259e+00  9.5080429553e+00  1.5000000000e+00 0. 9.
#pdf   21    4  7.255243e-02  9.742280e-02  5.431296e+00  1.587846e+00  2.283614e-02
</event>
<event>
     4  9999  1.000000e+00  7.459782e+00  7.602489e-03  2.156245e-01
        1    -1     0     0   101     0  0.0000000000e+00  0.0000000000e+00  1.5996632543e+01  1.5996632543e+01  0.0000000000e+00 0. 9.
       21    -1     0     0   102   101  0.0000000000e+00  0.0000000000e+00 -7.0542263800e+00  7.0542263800e+00  0.0000000000e+00 0. 9.
        1     1     1     2   103     0  6.7736199977e+00 -3.1208296653e+00  1.2675690062e+01  1.4710660224e+01  3.3000000000e-01 0. 9.
       21     1     1     2   102   103 -6.7736199977e+00  3.1208296653e+00 -3.7332838989e+00  8.3401986992e+00  0.0000000000e+00 0. 9.
#pdf    1   21  1.599663e-01  7.054226e-02  7.459782e+00  3.413632e-01  1.607226e+00
</event>
<event>
     4  9999  1.000000e+00  5.418580e+00  7.576708e-03  2.354266e-01
       -1    -1     0     0     0   101  0.0000000000e+00  0.0000000000e+00  2.3873843364e+00  2.3873843364e+00  0.0000000000e+00 0. 9.
       21    -1     0     0   101   102  0.0000000000e+00  0.0000000000e+00 -1.3290733757e+01  1.3290733757e+01  0.0000000000e+00 0. 9.
       -1     1     1     2     0   103  1.5172616265e+00 -5.1969760073e+00 -3.3161948243e+00  6.3574122547e+00  3.3000000000e-01 0. 9.
       21     1     1     2   103   102 -1.5172616265e+00  5.1969760073e+00 -7.5871545968e+00  9.3207058391e+00  0.0000000000e+00 0. 9.
#pdf   -1   21  2.387384e-02  1.329073e-01  5.418580e+00  2.718421e-01  8.661138e-01
</event>
<event>
     4  9999  1.000000e+00  5.440583e+00  7.577034e-03  2.351529e-01
       21    -1     0     0   102   101  0.0000000000e+00  0.0000000000e+00  7.7101787307e+00  7.7101787307e+00  0.0000000000e+00 0. 9.
       21    -1     0     0   104   103  0.0000000000e+00  0.0000000000e+00 -2.1379612676e+01  2.1379612676e+01  0.0000000000e+00 0. 9.
       21     1     1     2   104   101  5.4305507550e+00 -3.3023972875e-01  6.3397231902e+00  8.3541624301e+00  0.0000000000e+00 0. 9.
       21     1     1     2   102   103 -5.4305507550e+00  3.3023972875e-01 -2.0009157136e+01  2.0735628977e+01  0.0000000000e+00 0. 9.
#pdf   21   21  7.710179e-02  2.137961e-01  5.440583e+00  1.502405e+00  4.981576e-01
</event>
<event>
     4  9999  1.000000e+00  5.027919e+00  7.570699e-03  2.405984e-01
       -1    -1     0     0     0   101  0.0000000000e+00  0.0000000000e+00  5.8701110842e-01  5.8701110842e-01  0.0000000000e+00 0. 9.
       21    -1     0     0   101   102  0.0000000000e+00  0.0000000000e+00 -4.4504430967e+01  4.4504430967e+01  0.0000000000e+00 0. 9.
       -1     1     1     2     0   103  2.2338224362e+00  4.4985939580e+00 -1.7931939252e+01  1.8625000822e+01  3.3000000000e-01 0. 9.
       21     1     1     2   103   102 -2.2338224362e+00 -4.4985939580e+00 -2.5985480607e+01  2.6466441254e+01  0.0000000000e+00 0. 9.
#pdf   -1   21  5.870111e-03  4.450443e-01  5.027919e+00  4.473309e-01  1.218602e-01
</event>
<event>
     4  9999  1.000000e+00  6.791911e+00  7.594907e-03  2.210801e-01
        2    -1     0     0   101     0  0.0000000000e+00  0.0000000000e+00  1.9925631823e+01  1.9925631823e+01  0.0000000000e+00 0. 9.
       21    -1     0     0   102   103  0.0000000000e+00  0.0000000000e+00 -1.5065246723e+01  1.5065246723e+01  0.0000000000e+00 0. 9.
        2     1     1     2   102     0 -2.7046056511e+00  6.2295097628e+00  1.8524069912e+01  1.9732504902e+01  3.3000000000e-01 0. 9.
       21     1     1     2   101   103  2.7046056511e+00 -6.2295097628e+00 -1.3663684812e+01  1.5258373644e+01  0.0000000000e+00 0. 9.
#pdf    2   21  1.992563e-01  1.506525e-01  6.791911e+00  5.820360e-01  7.277965e-01
</event>
<event>
     4  9999  1.000000e+00  6.202216e+00  7.587579e-03  2.266329e-01
       -1    -1     0     0     0   101  0.0000000000e+00  0.0000000000e+00  5.0762902045e+00  5.0762902045e+00  0.0000000000e+00 0. 9.
       21    -1     0     0   103   102  0.0000000000e+00  0.0000000000e+00 -1.5995703530e+01  1.5995703530e+01  0.0000000000e+00 0. 9.
       -1     1     1     2     0   102  5.7105837623e+00 -2.4147320130e+00  2.1790788627e+00  6.5801962198e+00  3.3000000000e-01 0. 9.
       21     1     1     2   103   101 -5.7105837623e+00  2.4147320130e+00 -1.3098492188e+01  1.4491797515e+01  0.0000000000e+00 0. 9.
#pdf   -1   21  5.076290e-02  1.599570e-01  6.202216e+00  1.842816e-01  6.883860e-01
</event>
<event>
     4  9999  1.000000e+00  5.958382e+00  7.584348e-03  2.291747e-01
       21    -1     0     0   102   103  0.0000000000e+00  0.0000000000e+00  8.7197859783e-01  8.7197859783e-01  0.0000000000e+00 0. 9.
        2    -1     0     0   101     0  0.0000000000e+00  0.0000000000e+00 -5.6062424401e+01  5.6062424401e+01  0.0000000000e+00 0. 9.
       21     1     1     2   101   103  5.8478470269e+00 -1.1249288635e+00 -1.2693462291e+01  1.4020940223e+01  0.0000000000e+00 0. 9.
        2     1     1     2   102     0 -5.8478470269e+00  1.1249288635e+00 -4.2496983512e+01  4.2913462776e+01  3.3000000000e-01 0. 9.
#pdf   21    2  8.719786e-03  5.606242e-01  5.958382e+00  6.580131e+00  1.384026e-01
</event>
<event>
     4  9999  1.000000e+00  6.639456e+00  7.593074e-03  2.224424e-01
        2    -1     0     0   101     0  0.0000000000e+00  0.0000000000e+00  1.6731692240e+01  1.6731692240e+01  0.0000000000e+00 0. 9.
        2    -1     0     0   102     0  0.0000000000e+00  0.0000000000e+00 -4.1939393131e+00  4.1939393131e+00  0.0000000000e+00 0. 9.
        2     1     1     2   101     0  9.8885183121e-01 -6.5601931374e+00 -1.0585312756e-01  6.6433475619e+00  3.3000000000e-01 0. 9.
        2     1     1     2   102     0 -9.8885183121e-01  6.5601931374e+00  1.2643606054e+01  1.4282283991e+01  3.3000000000e-01 0. 9.
#pdf    2    2  1.673169e-01  4.193939e-02  6.639456e+00  6.082872e-01  5.846176e-01
</event>
<event>
     4  9999  1.000000e+00  6.408349e+00  7.590215e-03  2.246022e-01
       21    -1     0     0   101   102  0.0000000000e+00  0.0000000000e+00  6.7428258824e+00  6.7428258824e+00  0.0000000000e+00 0. 9.
       21    -1     0     0   103   104  0.0000000000e+00  0.0000000000e+00 -7.9169232413e+00  7.9169232413e+00  0.0000000000e+00 0. 9.
       21     1     1     2   101   104  3.7703594543e+00  5.1818263318e+00 -4.1077029880e+00  7.6118432975e+00  0.0000000000e+00 0. 9.
       21     1     1     2   103   102 -3.7703594543e+00 -5.1818263318e+00  2.9336056291e+00  7.0479058262e+00  0.0000000000e+00 0. 9.
#pdf   21   21  6.742826e-02  7.916923e-02  6.408349e+00  1.685650e+00  1.453362e+00
</event>
<event>
     4  9999  1.000000e+00  1.047252e+01  7.630325e-03  1.979565e-01
       -1    -1     0     0     0   101  0.0000000000e+00  0.0000000000e+00  7.2979184540e+00  7.2979184540e+00  0.0000000000e+00 0. 9.
        2    -1     0     0   101     0  0.0000000000e+00  0.0000000000e+00 -1.6837537340e+01  1.6837537340e+01  0.0000000000e+00 0. 9.
       -1     1     1     2     0   102 -5.2885104453e+00 -9.0337275755e+00 -8.1553602623e-01  1.0504788225e+01  3.3000000000e-01 0. 9.
        2     1     1     2   102     0  5.2885104453e+00  9.0337275755e+00 -8.7240828597e+00  1.3630667569e+01  3.3000000000e-01 0. 9.
#pdf   -1    2  7.297918e-02  1.683754e-01  1.047252e+01  1.423002e-01  5.891389e-01
</event>
<event>
     4  9999  1.000000e+00  6.608946e+00  7.592702e-03  2.227208e-01
        1    -1     0     0   101     0  0.0000000000e+00  0.0000000000e+00  6.3464307377e+00  6.3464307377e+00  0.0000000000e+00 0. 9.
       21    -1     0     0   102   103  0.0000000000e+00  0.0000000000e+00 -8.7990956994e+00  8.7990956994e+00  0.0000000000e+00 0. 9.
        1     1     1     2   102     0 -6.5928338964e+00  4.1246503313e-01  2.3057900720e+00  7.0043667840e+00  3.3000000000e-01 0. 9.
       21     1     1     2   101   103  6.5928338964e+00 -4.1246503313e-01 -4.7584550337e+00  8.1411596530e+00  0.0000000000e+00 0. 9.
#pdf    1   21  6.346431e-02  8.799096e-02  6.608946e+00  4.172647e-01  1.309305e+00
</event>
<event>
     4  9999  1.000000e+00  7.658756e+00  7.604619e-03  2.141414e-01
       21    -1     0     0   102   101  0.0000000000e+00  0.0000000000e+00  3.3499568759e+01  3.3499568759e+01  0.0000000000e+00 0. 9.
        1    -1     0     0   101     0  0.0000000000e+00  0.0000000000e+00 -3.2645607787e+01  3.2645607787e+01  0.0000000000e+00 0. 9.
       21     1     1     2   102   103  4.8796605263e+00 -5.9027561256e+00  3.2599601735e+01  3.3487126632e+01  0.0000000000e+00 0. 9.
        1     1     1     2   103     0 -4.8796605263e+00  5.9027561256e+00 -3.1745640763e+01  3.2658049914e+01  3.3000000000e-01 0. 9.
#pdf   21    1  3.349957e-01  3.264561e-01  7.658756e+00  2.212897e-01  1.710560e-01
</event>
<event>
     4  9999  1.000000e+00  5.391218e+00  7.576301e-03  2.357695e-01
       21    -1     0     0   101   102  0.0000000000e+00  0.0000000000e+00  8.8828032342e+00  8.8828032342e+00  0.0000000000e+00 0. 9.
       -1    -1     0     0     0   101  0.0000000000e+00  0.0000000000e+00 -6.2955860038e+00  6.2955860038e+00  0.0000000000e+00 0. 9.
       21     1     1     2   103   102 -5.3636395679e+00 -5.1798161567e-01  6.5497814592e+00  8.4815429924e+00  0.0000000000e+00 0. 9.
       -1     1     1     2     0   103  5.3636395679e+00  5.1798161567e-01 -3.9625642288e+00  6.6968462455e+00  3.3000000000e-01 0. 9.
#pdf   21   -1  8.882803e-02  6.295586e-02  5.391218e+00  1.315581e+00  1.590045e-01
</event>
<event>
     4  9999  1.000000e+00  5.635393e+00  7.579862e-03  2.328029e-01
       21    -1     0     0   101   102  0.0000000000e+00  0.0000000000e+00  1.5404761408e+00  1.5404761408e+00  0.0000000000e+00 0. 9.
       21    -1     0     0   103   104  0.0000000000e+00  0.0000000000e+00 -2.0776074439e+01  2.0776074439e+01  0.0000000000e+00 0. 9.
       21     1     1     2   101   104 -4.8240709926e+00 -2.9130730011e+00 -8.6367733731e+00  1.0312686825e+01  0.0000000000e+00 0. 9.
       21     1     1     2   103   102  4.8240709926e+00  2.9130730011e+00 -1.0598824925e+01  1.2003863755e+01  0.0000000000e+00 0. 9.
#pdf   21   21  1.540476e-02  2.077607e-01  5.635393e+00  4.770284e+00  5.119682e-01
</event>
<event>
     4  9999  1.000000e+00  5.846842e+00  7.582826e-03  2.303922e-01
       21    -1     0     0   102   101  0.0000000000e+00  0.0000000000e+00  1.4292645389e+00  1.4292645389e+00  0.0000000000e+00 0. 9.
        2    -1     0     0   101     0  0.0000000000e+00  0.0000000000e+00 -2.6226096117e+01  2.6226096117e+01  0.0000000000e+00 0. 9.
       21     1     1     2   102   103 -3.0997639461e+00  4.9525131700e+00 -8.2905173692e+00  1.0142415958e+01  0.0000000000e+00 0. 9.
        2     1     1     2   103     0  3.0997639461e+00 -4.9525131700e+00 -1.6506314209e+01  1.7512944698e+01  3.3000000000e-01 0. 9.
#pdf   21    2  1.429265e-02  2.622610e-01  5.846842e+00  5.009651e+00  5.223251e-01
</event>
<event>
     4  9999  1.000000e+00  8.156272e+00  7.609718e-03  2.106768e-01
       21    -1     0     0   102   101  0.0000000000e+00  0.0000000000e+00  5.4994424220e+00  5.4994424220e+00  0.0000000000e+00 0. 9.
        2    -1     0     0   101     0  0.0000000000e+00  0.0000000000e+00 -1.9017686666e+01  1.9017686666e+01  0.0000000000e+00 0. 9.
       21     1     1     2   102   103  4.7364776890e+00 -6.6374630581e+00  6.3585764008e-01  8.1789028411e+00  0.0000000000e+00 0. 9.
        2     1     1     2   103     0 -4.7364776890e+00  6.6374630581e+00 -1.4154101884e+01  1.6338226246e+01  3.3000000000e-01 0. 9.
#pdf   21    2  5.499442e-02  1.901769e-01  8.156272e+00  2.004505e+00  5.811841e-01
</event>
<event>
     4  9999  1.000000e+00  6.204428e+00  7.587608e-03  2.266105e-01
       -3    -1     0     0     0   101  0.0000000000e+00  0.0000000000e+00  7.4467682472e-01  7.4467682472e-01  0.0000000000e+00 0. 9.
        2    -1     0     0   101     0  0.0000000000e+00  0.0000000000e+00 -6.3702975579e+01  6.3702975579e+01  0.0000000000e+00 0. 9.
       -3     1     1     2     0   102 -3.9344337709e+00  4.7822133095e+00 -1.7537687560e+01  1.8605639419e+01  5.0000000000e-01 0. 9.
        2     1     1     2   102     0  3.9344337709e+00 -4.7822133095e+00 -4.5420611194e+01  4.5842012985e+01  3.3000000000e-01 0. 9.
#pdf   -3    2  7.446768e-03  6.370298e-01  6.204428e+00  2.109058e-01  7.599664e-02
</event>
<event>
     4  9999  1.000000e+00  5.894805e+00  7.583484e-03  2.298642e-01
        2    -1     0     0   101     0  0.0000000000e+00  0.0000000000e+00  1.1637383438e+01  1.1637383438e+01  0.0000000000e+00 0. 9.
       21    -1     0     0   102   101  0.0000000000e+00  0.0000000000e+00 -9.9369427399e+00  9.9369427399e+00  0.0000000000e+00 0. 9.
        2     1     1     2   103     0 -1.9094352131e+00 -5.5755198638e+00  9.8703220839e+00  1.1500631401e+01  3.3000000000e-01 0. 9.
       21     1     1     2   102   103  1.9094352131e+00  5.5755198638e+00 -8.1698813861e+00  1.0073694776e+01  0.0000000000e+00 0. 9.
#pdf    2   21  1.163738e-01  9.936943e-02  5.894805e+00  6.288882e-01  1.169297e+00
</event>
<event>
     4  9999  1.000000e+00  5.019002e+00  7.570556e-03  2.407238e-01
       21    -1     0     0   102   101  0.0000000000e+00  0.0000000000e+00  3.9915861165e+00  3.9915861165e+00  0.0000000000e+00 0. 9.
       21    -1     0     0   104   103  0.0000000000e+00  0.0000000000e+00 -1.1985582949e+01  1.1985582949e+01  0.0000000000e+00 0. 9.
       21     1     1     2   104   101 -2.1987574549e+00  4.5117457166e+00  1.4998299595e+00  5.2383082826e+00  0.0000000000e+00 0. 9.
       21     1     1     2   102   103  2.1987574549e+00 -4.5117457166e+00 -9.4938267923e+00  1.0738860783e+01  0.0000000000e+00 0. 9.
#pdf   21   21  3.991586e-02  1.198558e-01  5.019002e+00  2.563505e+00  9.768083e-01
</event>
<event>
     4  9999  1.000000e+00  5.428283e+00  7.576852e-03  2.353057e-01
       21    -1     0     0   102   101  0.0000000000e+00  0.0000000000e+00  1.1002889748e+01  1.1002889748e+01  0.0000000000e+00 0. 9.
       21    -1     0     0   103   102  0.0000000000e+00  0.0000000000e+00 -3.1924846195e+00  3.1924846195e+00  0.0000000000e+00 0. 9.
       21     1     1     2   104   101  5.0256285304e+00 -2.0516625080e+00  1.0560309758e+00  5.5300508672e+00  0.0000000000e+00 0. 9.
       21     1     1     2   103   104 -5.0256285304e+00  2.0516625080e+00  6.7543741531e+00  8.6653235007e+00  0.0000000000e+00 0. 9.
#pdf   21   21  1.100289e-01  3.192485e-02  5.428283e+00  1.060620e+00  3.016700e+00
</event>
<event>
     4  9999  1.000000e+00  5.568454e+00  7.578901e-03  2.335958e-01
       21    -1     0     0   101   102  0.0000000000e+00  0.0000000000e+00  8.9568129137e+00  8.9568129137e+00  0.0000000000e+00 0. 9.
       21    -1     0     0   103   101  0.0000000000e+00  0.0000000000e+00 -2.8290082425e+01  2.8290082425e+01  0.0000000000e+00 0. 9.
       21     1     1     2   103   104  5.4660327704e+00 -1.0630940931e+00 -2.7113417373e+01  2.7679325948e+01  0.0000000000e+00 0. 9.
       21     1     1     2   104   102 -5.4660327704e+00  1.0630940931e+00  7.7801478616e+00  9.5675693907e+00  0.0000000000e+00 0. 9.
#pdf   21   21  8.956813e-02  2.829008e-01  5.568454e+00  1.302241e+00  3.420314e-01
</event>
<event>
     4  9999  1.000000e+00  5.618615e+00  7.579622e-03  2.330002e-01
       21    -1     0     0   101   102  0.0000000000e+00  0.0000000000e+00  3.9943068503e+00  3.9943068503e+00  0.0000000000e+00 0. 9.
       21    -1     0     0   103   101  0.0000000000e+00  0.0000000000e+00 -8.2604314563e+00  8.2604314563e+00  0.0000000000e+00 0. 9.
       21     1     1     2   103   104 -1.0262809788e+00 -5.5240910005e+00 -3.4068322784e+00  6.5707944879e+00  0.0000000000e+00 0. 9.
       21     1     1     2   104   102  1.0262809788e+00  5.5240910005e+00 -8.5929232760e-01  5.6839438187e+00  0.0000000000e+00 0. 9.
#pdf   21   21  3.994307e-02  8.260431e-02  5.618615e+00  2.578895e+00  1.406452e+00
</event>
<event>
     4  9999  1.000000e+00  7.239448e+00  7.600063e-03  2.173389e-01
        2    -1     0     0   101     0  0.0000000000e+00  0.0000000000e+00  6.3332410602e+01  6.3332410602e+01  0.0000000000e+00 0. 9.
       21    -1     0     0   102   101  0.0000000000e+00  0.0000000000e+00 -1.1207673214e+00  1.1207673214e+00  0.0000000000e+00 0. 9.
        2     1     1     2   103     0  4.5807580077e+00  5.6023269373e+00  4.7595506520e+01  4.8143644980e+01  3.3000000000e-01 0. 9.
       21     1     1     2   102   103 -4.5807580077e+00 -5.6023269373e+00  1.4616136760e+01  1.6309532943e+01  0.0000000000e+00 0. 9.
#pdf    2   21  6.333241e-01  1.120767e-02  7.239448e+00  7.416277e-02  5.968432e+00
</event>
<event>
     4  9999  1.000000e+00  5.513825e+00  7.578108e-03  2.342541e-01
       21    -1     0     0   102   101  0.0000000000e+00  0.0000000000e+00  1.1022331705e+01  1.1022331705e+01  0.0000000000e+00 0. 9.
       21    -1     0     0   101   103  0.0000000000e+00  0.0000000000e+00 -3.0824213197e+00  3.0824213197e+00  0.0000000000e+00 0. 9.
       21     1     1     2   104   103  4.0196428509e+00  3.7742197781e+00  1.6828727524e+00  5.7649218800e+00  0.0000000000e+00 0. 9.
       21     1     1     2   102   104 -4.0196428509e+00 -3.7742197781e+00  6.2570376325e+00  8.3398311443e+00  0.0000000000e+00 0. 9.
#pdf   21   21  1.102233e-01  3.082421e-02  5.513825e+00  1.057013e+00  3.093049e+00
</event>
<event>
     4  9999  1.000000e+00  5.925924e+00  7.583908e-03  2.295253e-01
       21    -1     0     0   102   103  0.0000000000e+00  0.0000000000e+00  2.3552856486e+00  2.3552856486e+00  0.0000000000e+00 0. 9.
        2    -1     0     0   101     0  0.0000000000e+00  0.0000000000e+00 -4.5580215100e+01  4.5580215100e+01  0.0000000000e+00 0. 9.
       21     1     1     2   101   103  2.8428310319e+00 -5.1977959519e+00 -1.9512374412e+00  6.2374753374e+00  0.0000000000e+00 0. 9.
        2     1     1     2   102     0 -2.8428310319e+00  5.1977959519e+00 -4.1273692010e+01  4.1698025411e+01  3.3000000000e-01 0. 9.
#pdf   21    2  2.355286e-02  4.558022e-01  5.925924e+00  3.716164e+00  2.562501e-01
</event>
<event>
     4  9999  1.000000e+00  7.601274e+00  7.604009e-03  2.145637e-01
       -3    -1     0     0     0   101  0.0000000000e+00  0.0000000000e+00  3.5381150898e+00  3.5381150898e+00  0.0000000000e+00 0. 9.
        2    -1     0     0   101     0  0.0000000000e+00  0.0000000000e+00 -2.0023905288e+01  2.0023905288e+01  0.0000000000e+00 0. 9.
       -3     1     1     2     0   102 -6.6894842981e+00 -3.5894055265e+00 -3.1937820864e+00  8.2512590690e+00  5.0000000000e-01 0. 9.
        2     1     1     2   102     0  6.6894842981e+00  3.5894055265e+00 -1.3292008112e+01  1.5310761309e+01  3.3000000000e-01 0. 9.
#pdf   -3    2  3.538115e-02  2.002391e-01  7.601274e+00  9.357114e-02  5.752670e-01
</event>
<event>
     4  9999  1.000000e+00  5.061450e+00  7.571232e-03  2.401298e-01
       21    -1     0     0   101   102  0.0000000000e+00  0.0000000000e+00  3.7896964861e+00  3.7896964861e+00  0.0000000000e+00 0. 9.
       -1    -1     0     0     0   101  0.0000000000e+00  0.0000000000e+00 -1.0368421931e+01  1.0368421931e+01  0.0000000000e+00 0. 9.
       21     1     1     2   103   102  5.0576290042e+00  5.6359556859e-02  8.8620107688e-01  5.1349917130e+00  0.0000000000e+00 0. 9.
       -1     1     1     2     0   103 -5.0576290042e+00 -5.6359556859e-02 -7.4649265222e+00  9.0231267046e+00  3.3000000000e-01 0. 9.
#pdf   21   -1  3.789696e-02  1.036842e-01  5.061450e+00  2.661823e+00  1.049334e-01
</event>
<event>
     4  9999  1.000000e+00  6.071207e+00  7.585859e-03  2.279788e-01
        1    -1     0     0   101     0  0.0000000000e+00  0.0000000000e+00  3.3412412735e+01  3.3412412735e+01  0.0000000000e+00 0. 9.
       21    -1     0     0   102   103  0.0000000000e+00  0.0000000000e+00 -1.1056864998e+00  1.1056864998e+00  0.0000000000e+00 0. 9.
        1     1     1     2   102     0  4.3526203291e+00  4.2261026812e+00  1.5342408992e+01  1.6501626019e+01  3.3000000000e-01 0. 9.
       21     1     1     2   101   103 -4.3526203291e+00 -4.2261026812e+00  1.6964317244e+01  1.8016473216e+01  0.0000000000e+00 0. 9.
#pdf    1   21  3.341241e-01  1.105686e-02  6.071207e+00  1.722131e-01  5.820367e+00
</event>
<event>
     4  9999  1.000000e+00  5.230309e+00  7.573867e-03  2.378428e-01
       21    -1     0     0   102   103  0.0000000000e+00  0.0000000000e+00  7.3419484934e-01  7.3419484934e-01  0.0000000000e+00 0. 9.
        2    -1     0     0   101     0  0.0000000000e+00  0.0000000000e+00 -5.4219516522e+01  5.4219516522e+01  0.0000000000e+00 0. 9.
       21     1     1     2   101   103  1.4460018850e+00  5.0227289851e+00 -1.1367659123e+01  1.2511690607e+01  0.0000000000e+00 0. 9.
        2     1     1     2   102     0 -1.4460018850e+00 -5.0227289851e+00 -4.2117662550e+01  4.2442020765e+01  3.3000000000e-01 0. 9.
#pdf   21    2  7.341948e-03  5.421952e-01  5.230309e+00  6.947128e+00  1.629354e-01
</event>
<event>
     4  9999  1.000000e+00  5.212399e+00  7.573591e-03  2.380798e-01
       21    -1     0     0   102   101  0.0000000000e+00  0.0000000000e+00  3.8728161446e+00  3.8728161446e+00  0.0000000000e+00 0. 9.
       21    -1     0     0   104   103  0.0000000000e+00  0.0000000000e+00 -9.7152585950e+00  9.7152585950e+00  0.0000000000e+00 0. 9.
       21     1     1     2   104   101  4.6052713525e+00 -2.4414304822e+00  6.6037311457e-01  5.2540650624e+00  0.0000000000e+00 0. 9.
       21     1     1     2   102   103 -4.6052713525e+00  2.4414304822e+00 -6.5028155649e+00  8.3340096772e+00  0.0000000000e+00 0. 9.
#pdf   21   21  3.872816e-02  9.715259e-02  5.212399e+00  2.626446e+00  1.207789e+00
</event>
<event>
     4  9999  1.000000e+00  5.093582e+00  7.571740e-03  2.396854e-01
       21    -1     0     0   101   102  0.0000000000e+00  0.0000000000e+00  1.9654994695e+01  1.9654994695e+01  0.0000000000e+00 0. 9.
       -1    -1     0     0     0   101  0.0000000000e+00  0.0000000000e+00 -4.2120978876e+00  4.2120978876e+00  0.0000000000e+00 0. 9.
       21     1     1     2   103   102  3.3254127713e+00 -3.8560528090e+00  1.7604076410e+01  1.8325692882e+01  0.0000000000e+00 0. 9.
       -1     1     1     2     0   103 -3.3254127713e+00  3.8560528090e+00 -2.1611796025e+00  5.5413997004e+00  3.3000000000e-01 0. 9.
#pdf   21   -1  1.965499e-01  4.212098e-02  5.093582e+00  5.596981e-01  2.040868e-01
</event>
<event>
     4  9999  1.000000e+00  8.850852e+00  7.616350e-03  2.063417e-01
       21    -1     0     0   102   103  0.0000000000e+00  0.0000000000e+00  1.4253399375e+01  1.4253399375e+01  0.0000000000e+00 0. 9.
        2    -1     0     0   101     0  0.0000000000e+00  0.0000000000e+00 -1.3419899676e+01  1.3419899676e+01  0.0000000000e+00 0. 9.
       21     1     1     2   101   103 -5.2596451584e+00  7.1169804532e+00  1.1047400139e+01  1.4154869402e+01  0.0000000000e+00 0. 9.
        2     1     1     2   102     0  5.2596451584e+00 -7.1169804532e+00 -1.0213900440e+01  1.3518429649e+01  3.3000000000e-01 0. 9.
#pdf   21    2  1.425340e-01  1.341990e-01  8.850852e+00  7.469836e-01  6.160883e-01
</event>
<event>
     4  9999  1.000000e+00  6.405931e+00  7.590185e-03  2.246254e-01
       21    -1     0     0   102   103  0.0000000000e+00  0.0000000000e+00  1.3084755823e+01  1.3084755823e+01  0.0000000000e+00 0. 9.
        2    -1     0     0   101     0  0.0000000000e+00  0.0000000000e+00 -1.2338080667e+01  1.2338080667e+01  0.0000000000e+00 0. 9.
       21     1     1     2   101   103 -2.6494897590e+00  5.8311506941e+00  1.1349072097e+01  1.3031636576e+01  0.0000000000e+00 0. 9.
        2     1     1     2   102     0  2.6494897590e+00 -5.8311506941e+00 -1.0602396941e+01  1.2391199913e+01  3.3000000000e-01 0. 9.
#pdf   21    2  1.308476e-01  1.233808e-01  6.405931e+00  8.625913e-01  6.269121e-01
</event>
<event>
     4  9999  1.000000e+00  5.798532e+00  7.582158e-03  2.309308e-01
       21    -1     0     0   102   101  0.0000000000e+00  0.0000000000e+00  7.1560765633e+00  7.1560765633e+00  0.0000000000e+00 0. 9.
       21    -1     0     0   103   102  0.0000000000e+00  0.0000000000e+00 -8.7288577215e+00  8.7288577215e+00  0.0000000000e+00 0. 9.
       21     1     1     2   104   101  1.8062419270e+00  5.5100329466e+00  4.6105471631e+00  7.4081116430e+00  0.0000000000e+00 0. 9.
       21     1     1     2   103   104 -1.8062419270e+00 -5.5100329466e+00 -6.1833283213e+00  8.4768226418e+00  0.0000000000e+00 0. 9.
#pdf   21   21  7.156077e-02  8.728858e-02  5.798532e+00  1.603410e+00  1.331494e+00
</event>
<event>
     4  9999  1.000000e+00  5.325605e+00  7.575317e-03  2.366030e-01
       21    -1     0     0   101   102  0.0000000000e+00  0.0000000000e+00  1.4569757988e+01  1.4569757988e+01  0.0000000000e+00 0. 9.
       21    -1     0     0   102   103  0.0000000000e+00  0.0000000000e+00 -3.6224794057e+00  3.6224794057e+00  0.0000000000e+00 0. 9.
       21     1     1     2   101   104 -1.0809780748e+00  5.2147436042e+00  1.1660487167e+01  1.2819088322e+01  0.0000000000e+00 0. 9.
       21     1     1     2   104   103  1.0809780748e+00 -5.2147436042e+00 -7.1320858452e-01  5.3731490711e+00  0.0000000000e+00 0. 9.
#pdf   21   21  1.456976e-01  3.622479e-02  5.325605e+00  7.837755e-01  2.758776e+00
</event>
<event>
     4  9999  1.000000e+00  5.173352e+00  7.572988e-03  2.386010e-01
        1    -1     0     0   101     0  0.0000000000e+00  0.0000000000e+00  7.5729969765e+00  7.5729969765e+00  0.0000000000e+00 0. 9.
        2    -1     0     0   102     0  0.0000000000e+00  0.0000000000e+00 -8.6628247859e+00  8.6628247859e+00  0.0000000000e+00 0. 9.
        1     1     1     2   102     0  5.0280266450e+00 -1.1992059314e+00  5.6961599321e+00  7.6989794636e+00  3.3000000000e-01 0. 9.
        2     1     1     2   101     0 -5.0280266450e+00  1.1992059314e+00 -6.7859877414e+00  8.5368422989e+00  3.3000000000e-01 0. 9.
#pdf    1    2  7.572997e-02  8.662825e-02  5.173352e+00  4.109447e-01  6.213679e-01
</event>
<event>
     4  9999  1.000000e+00  5.163344e+00  7.572832e-03  2.387356e-01
       21    -1     0     0   101   102  0.0000000000e+00  0.0000000000e+00  3.2035709191e+00  3.2035709191e+00  0.0000000000e+00 0. 9.
       21    -1     0     0   103   104  0.0000000000e+00  0.0000000000e+00 -1.4667617698e+01  1.4667617698e+01  0.0000000000e+00 0. 9.
       21     1     1     2   101   104 -2.2906461535e+00 -4.6274248619e+00 -1.1609360030e+01  1.2705800288e+01  0.0000000000e+00 0. 9.
       21     1     1     2   103   102  2.2906461535e+00  4.6274248619e+00  1.4531325086e-01  5.1653883294e+00  0.0000000000e+00 0. 9.
#pdf   21   21  3.203571e-02  1.466762e-01  5.163344e+00  2.995038e+00  7.811853e-01
</event>
<event>
     4  9999  1.000000e+00  6.129338e+00  7.586627e-03  2.273761e-01
        2    -1     0     0   101     0  0.0000000000e+00  0.0000000000e+00  2.8493658321e+01  2.8493658321e+01  0.0000000000e+00 0. 9.
       21    -1     0     0   102   103  0.0000000000e+00  0.0000000000e+00 -5.3821402940e+00  5.3821402940e+00  0.0000000000e+00 0. 9.
        2     1     1     2   102     0 -6.0897704395e+00  6.8567081037e-01  2.6272894779e+01  2.6980165835e+01  3.3000000000e-01 0. 9.
       21     1     1     2   101   103  6.0897704395e+00 -6.8567081037e-01 -3.1613767514e+00  6.8956327796e+00  0.0000000000e+00 0. 9.
#pdf    2   21  2.849366e-01  5.382140e-02  6.129338e+00  4.898141e-01  2.047872e+00
</event>
<event>
     4  9999  1.000000e+00  5.908957e+00  7.583677e-03  2.297098e-01
        1    -1     0     0   101     0  0.0000000000e+00  0.0000000000e+00  9.5672041103e-01  9.5672041103e-01  0.0000000000e+00 0. 9.
       21    -1     0     0   102   103  0.0000000000e+00  0.0000000000e+00 -3.6538722874e+01  3.6538722874e+01  0.0000000000e+00 0. 9.
        1     1     1     2   102     0  3.7550119113e+00  4.5564559770e+00 -1.8450873072e+01  1.9375371548e+01  3.3000000000e-01 0. 9.
       21     1     1     2   101   103 -3.7550119113e+00 -4.5564559770e+00 -1.7131129391e+01  1.8120071737e+01  0.0000000000e+00 0. 9.
#pdf    1   21  9.567204e-03  3.653872e-01  5.908957e+00  4.989715e-01  2.057717e-01
</event>
<event>
     4  9999  1.000000e+00  5.039809e+00  7.570888e-03  2.404316e-01
       21    -1     0     0   101   102  0.0000000000e+00  0.0000000000e+00  1.0289471317e+01  1.0289471317e+01  0.0000000000e+00 0. 9.
       21    -1     0     0   103   104  0.0000000000e+00  0.0000000000e+00 -2.4951407590e+00  2.4951407590e+00  0.0000000000e+00 0. 9.
       21     1     1     2   101   104 -2.8440451433e+00 -4.1606589023e+00  4.5575422947e+00  6.7949147932e+00  0.0000000000e+00 0. 9.
       21     1     1     2   103   102  2.8440451433e+00  4.1606589023e+00  3.2367882633e+00  5.9896972828e+00  0.0000000000e+00 0. 9.
#pdf   21   21  1.028947e-01  2.495141e-02  5.039809e+00  1.143119e+00  3.514095e+00
</event>
<event>
     4  9999  1.000000e+00  5.206353e+00  7.573498e-03  2.381601e-01
       21    -1     0     0   101   102  0.0000000000e+00  0.0000000000e+00  2.9616193402e+00  2.9616193402e+00  0.0000000000e+00 0. 9.
       21    -1     0     0   103   104  0.0000000000e+00  0.0000000000e+00 -2.1285895866e+01  2.1285895866e+01  0.0000000000e+00 0. 9.
       21     1     1     2   101   104  4.4423457200e+00  2.7150836306e+00 -8.7242818473e-03  5.2063606031e+00  0.0000000000e+00 0. 9.
       21     1     1     2   103   102 -4.4423457200e+00 -2.7150836306e+00 -1.8315552243e+01  1.9041154603e+01  0.0000000000e+00 0. 9.
#pdf   21   21  2.961619e-02  2.128590e-01  5.206353e+00  3.159269e+00  5.059709e-01
</event>
<event>
     4  9999  1.000000e+00  5.424092e+00  7.576790e-03  2.353579e-01
       21    -1     0     0   102   101  0.0000000000e+00  0.0000000000e+00  1.8688676441e+01  1.8688676441e+01  0.0000000000e+00 0. 9.
       21    -1     0     0   103   102  0.0000000000e+00  0.0000000000e+00 -9.9237402745e+00  9.9237402745e+00  0.0000000000e+00 0. 9.
       21     1     1     2   104   101  4.8020805575e+00  2.5220617301e+00  1.7504970458e+01  1.8326067875e+01  0.0000000000e+00 0. 9.
       21     1     1     2   103   104 -4.8020805575e+00 -2.5220617301e+00 -8.7400342910e+00  1.0286348840e+01  0.0000000000e+00 0. 9.
#pdf   21   21  1.868868e-01  9.923740e-02  5.424092e+00  5.870163e-01  1.179207e+00
</event>
<event>
     4  9999  1.000000e+00  1.030529e+01  7.628967e-03  1.987292e-01
       21    -1     0     0   103   102  0.0000000000e+00  0.0000000000e+00  8.5727559970e+00  8.5727559970e+00  0.0000000000e+00 0. 9.
       -1    -1     0     0     0   101  0.0000000000e+00  0.0000000000e+00 -1.3968086759e+01  1.3968086759e+01  0.0000000000e+00 0. 9.
       21     1     1     2   103   101 -9.6267979193e+00  3.6709083293e+00  1.0927521874e+00  1.0360739041e+01  0.0000000000e+00 0. 9.
       -1     1     1     2     0   102  9.6267979193e+00 -3.6709083293e+00 -6.4880829494e+00  1.2180103715e+01  3.3000000000e-01 0. 9.
#pdf   21   -1  8.572756e-02  1.396809e-01  1.030529e+01  1.299336e+00  7.211499e-02
</event>
<event>
     4  9999  1.000000e+00  5.565203e+00  7.578854e-03  2.336347e-01
       21    -1     0     0   102   101  0.0000000000e+00  0.0000000000e+00  1.1385992651e+01  1.1385992651e+01  0.0000000000e+00 0. 9.
       21    -1     0     0   104   103  0.0000000000e+00  0.0000000000e+00 -4.6478882388e+00  4.6478882388e+00  0.0000000000e+00 0. 9.
       21     1     1     2   104   101 -3.2878920747e+00 -4.4901283931e+00 -1.7939943782e+00  5.8472132773e+00  0.0000000000e+00 0. 9.
       21     1     1     2   102   103  3.2878920747e+00  4.4901283931e+00  8.5320987905e+00  1.0186667613e+01  0.0000000000e+00 0. 9.
#pdf   21   21  1.138599e-01  4.647888e-02  5.565203e+00  1.020634e+00  2.299881e+00
</event>
<event>
     4  9999  1.000000e+00  7.569158e+00  7.603667e-03  2.148018e-01
       21    -1     0     0   102   101  0.0000000000e+00  0.0000000000e+00  1.7842429850e+01  1.7842429850e+01  0.0000000000e+00 0. 9.
       21    -1     0     0   104   103  0.0000000000e+00  0.0000000000e+00 -3.7203187906e+00  3.7203187906e+00  0.0000000000e+00 0. 9.
       21     1     1     2   104   101 -7.3126954938e+00  1.9536219833e+00  3.0719436183e+00  8.1687815391e+00  0.0000000000e+00 0. 9.
       21     1     1     2   102   103  7.3126954938e+00 -1.9536219833e+00  1.1050167441e+01  1.3393967101e+01  0.0000000000e+00 0. 9.
#pdf   21   21  1.784243e-01  3.720319e-02  7.569158e+00  5.824248e-01  2.749988e+00
</event>
<event>
     4  9999  1.000000e+00  1.098816e+01  7.634385e-03  1.956847e-01
       21    -1     0     0   102   103  0.0000000000e+00  0.0000000000e+00  4.4922768314e+00  4.4922768314e+00  0.0000000000e+00 0. 9.
        1    -1     0     0   101     0  0.0000000000e+00  0.0000000000e+00 -2.9415377106e+01  2.9415377106e+01  0.0000000000e+00 0. 9.
       21     1     1     2   101   103  5.4086421101e+00 -9.5622472524e+00 -1.7438116640e+01  2.0610140561e+01  0.0000000000e+00 0. 9.
        1     1     1     2   102     0 -5.4086421101e+00  9.5622472524e+00 -7.4849836346e+00  1.3297513377e+01  3.3000000000e-01 0. 9.
#pdf   21    1  4.492277e-02  2.941538e-01  1.098816e+01  2.372742e+00  1.894447e-01
</event>
<event>
     4  9999  1.000000e+00  8.262950e+00  7.610772e-03  2.099754e-01
       21    -1     0     0   101   102  0.0000000000e+00  0.0000000000e+00  3.3525588267e+00  3.3525588267e+00  0.0000000000e+00 0. 9.
       21    -1     0     0   102   103  0.0000000000e+00  0.0000000000e+00 -2.4841267948e+01  2.4841267948e+01  0.0000000000e+00 0. 9.
       21     1     1     2   101   104 -8.0916346490e+00 -1.6738530130e+00 -4.7605989204e+00  9.5362276233e+00  0.0000000000e+00 0. 9.
       21     1     1     2   104   103  8.0916346490e+00  1.6738530130e+00 -1.6728110201e+01  1.8657599152e+01  0.0000000000e+00 0. 9.
#pdf   21   21  3.352559e-02  2.484127e-01  8.262950e+00  2.982544e+00  3.650765e-01
</event>
<event>
     4  9999  1.000000e+00  5.422616e+00  7.576768e-03  2.353763e-01
        2    -1     0     0   101     0  0.0000000000e+00  0.0000000000e+00  4.5053470627e+01  4.5053470627e+01  0.0000000000e+00 0. 9.
       21    -1     0     0   102   101  0.0000000000e+00  0.0000000000e+00 -1.5312559119e+00  1.5312559119e+00  0.0000000000e+00 0. 9.
        2     1     1     2   103     0 -3.4944584560e+00 -4.1437084202e+00  3.9406175810e+01  3.9778601676e+01  3.3000000000e-01 0. 9.
       21     1     1     2   102   103  3.4944584560e+00  4.1437084202e+00  4.1160389049e+00  6.8061248621e+00  0.0000000000e+00 0. 9.
#pdf    2   21  4.505347e-01  1.531256e-02  5.422616e+00  2.689677e-01  4.756189e+00
</event>
<event>
     4  9999  1.000000e+00  8.918084e+00  7.616964e-03  2.059493e-01
       21    -1     0     0   102   101  0.0000000000e+00  0.0000000000e+00  2.0041291200e+01  2.0041291200e+01  0.0000000000e+00 0. 9.
        2    -1     0     0   101     0  0.0000000000e+00  0.0000000000e+00 -7.6994740177e+00  7.6994740177e+00  0.0000000000e+00 0. 9.
       21     1     1     2   102   103  5.1282285442e+00  7.2942058324e+00  1.5823594188e+01  1.8162882474e+01  0.0000000000e+00 0. 9.
        2     1     1     2   103     0 -5.1282285442e+00 -7.2942058324e+00 -3.4817770063e+00  9.5778827435e+00  3.3000000000e-01 0. 9.
#pdf   21    2  2.004129e-01  7.699474e-02  8.918084e+00  4.842440e-01  6.173540e-01
</event>
<event>
     4  9999  1.000000e+00  5.803687e+00  7.582230e-03  2.308730e-01
       21    -1     0     0   101   102  0.0000000000e+00  0.0000000000e+00  5.0840957556e+00  5.0840957556e+00  0.0000000000e+00 0. 9.
       21    -1     0     0   103   104  0.0000000000e+00  0.0000000000e+00 -8.6498125843e+00  8.6498125843e+00  0.0000000000e+00 0. 9.
       21     1     1     2   101   104  3.2643850338e+00  4.7986016387e+00  1.5394461432e+00  6.0043885420e+00  0.0000000000e+00 0. 9.
       21     1     1     2   103   102 -3.2643850338e+00 -4.7986016387e+00 -5.1051629719e+00  7.7295197978e+00  0.0000000000e+00 0. 9.
#pdf   21   21  5.084096e-02  8.649813e-02  5.803687e+00  2.144466e+00  1.343178e+00
</event>
<event>
     4  9999  1.000000e+00  5.244708e+00  7.574088e-03  2.376532e-01
       21    -1     0     0   101   102  0.0000000000e+00  0.0000000000e+00  1.3752436389e+01  1.3752436389e+01  0.0000000000e+00 0. 9.
       21    -1     0     0   103   104  0.0000000000e+00  0.0000000000e+00 -2.5852196064e+00  2.5852196064e+00  0.0000000000e+00 0. 9.
       21     1     1     2   101   104 -1.5884808960e+00  4.9983684547e+00  1.6975065658e+00  5.5125753788e+00  0.0000000000e+00 0. 9.
       21     1     1     2   103   102  1.5884808960e+00 -4.9983684547e+00  9.4697102169e+00  1.0825080617e+01  0.0000000000e+00 0. 9.
#pdf   21   21  1.375244e-01  2.585220e-02  5.244708e+00  8.374271e-01  3.454029e+00
</event>
<event>
     4  9999  1.000000e+00  7.305891e+00  7.600802e-03  2.168136e-01
        1    -1     0     0   101     0  0.0000000000e+00  0.0000000000e+00  4.9884182480e+01  4.9884182480e+01  0.0000000000e+00 0. 9.
        2    -1     0     0   102     0  0.0000000000e+00  0.0000000000e+00 -2.5061282194e+01  2.5061282194e+01  0.0000000000e+00 0. 9.
        1     1     1     2   102     0 -1.3293825890e+00 -7.1836016150e+00  4.9073904672e+01  4.9615808065e+01  3.3000000000e-01 0. 9.
        2     1     1     2   101     0  1.3293825890e+00  7.1836016150e+00 -2.4251004386e+01  2.5329656609e+01  3.3000000000e-01 0. 9.
#pdf    1    2  4.988418e-01  2.506128e-01  7.305891e+00  5.784131e-02  5.217905e-01
</event>
<event>
     4  9999  1.000000e+00  6.846971e+00  7.595559e-03  2.205997e-01
       21    -1     0     0   102   101  0.0000000000e+00  0.0000000000e+00  1.9589696609e+01  1.9589696609e+01  0.0000000000e+00 0. 9.
       21    -1     0     0   104   103  0.0000000000e+00  0.0000000000e+00 -2.3999075516e+00  2.3999075516e+00  0.0000000000e+00 0. 9.
       21     1     1     2   104   101  6.5165011474e+00  2.1014821488e+00  8.0113199239e+00  1.0538608131e+01  0.0000000000e+00 0. 9.
       21     1     1     2   102   103 -6.5165011474e+00 -2.1014821488e+00  9.1784691336e+00  1.1450996029e+01  0.0000000000e+00 0. 9.
#pdf   21   21  1.958970e-01  2.399908e-02  6.846971e+00  5.281118e-01  3.725527e+00
</event>
<event>
     4  9999  1.000000e+00  5.214480e+00  7.573623e-03  2.380522e-01
       21    -1     0     0   102   101  0.0000000000e+00  0.0000000000e+00  3.3024067457e+00  3.3024067457e+00  0.0000000000e+00 0. 9.
       21    -1     0     0   103   102  0.0000000000e+00  0.0000000000e+00 -1.3531996660e+01  1.3531996660e+01  0.0000000000e+00 0. 9.
       21     1     1     2   104   101  5.1190138689e+00 -9.9322400185e-01  1.5213784535e-01  5.2166984609e+00  0.0000000000e+00 0. 9.
       21     1     1     2   103   104 -5.1190138689e+00  9.9322400185e-01 -1.0381727759e+01  1.1617704944e+01  0.0000000000e+00 0. 9.
#pdf   21   21  3.302407e-02  1.353200e-01  5.214480e+00  2.936551e+00  8.530638e-01
</event>
<event>
     4  9999  1.000000e+00  9.221178e+00  7.619680e-03  2.042340e-01
       21    -1     0     0   102   103  0.0000000000e+00  0.0000000000e+00  9.9446558495e+00  9.9446558495e+00  0.0000000000e+00 0. 9.
        2    -1     0     0   101     0  0.0000000000e+00  0.0000000000e+00 -1.1085772736e+01  1.1085772736e+01  0.0000000000e+00 0. 9.
       21     1     1     2   101   103  4.7860503494e+00 -7.8792043540e+00 -5.5979447019e+00  1.0785412560e+01  0.0000000000e+00 0. 9.
        2     1     1     2   102     0 -4.7860503494e+00  7.8792043540e+00  4.4568278152e+00  1.0245016026e+01  3.3000000000e-01 0. 9.
#pdf   21    2  9.944656e-02  1.108577e-01  9.221178e+00  1.121535e+00  6.215957e-01
</event>
<event>
     4  9999  1.000000e+00  6.632742e+00  7.592992e-03  2.225035e-01
       21    -1     0     0   102   101  0.0000000000e+00  0.0000000000e+00  2.1552861771e+01  2.1552861771e+01  0.0000000000e+00 0. 9.
       21    -1     0     0   104   103  0.0000000000e+00  0.0000000000e+00 -3.5537914094e+00  3.5537914094e+00  0.0000000000e+00 0. 9.
       21     1     1     2   104   101  1.1587980056e+00 -6.5307309846e+00  8.0967257303e-01  6.6819779771e+00  0.0000000000e+00 0. 9.
       21     1     1     2   102   103 -1.1587980056e+00  6.5307309846e+00  1.7189397789e+01  1.8424675204e+01  0.0000000000e+00 0. 9.
#pdf   21   21  2.155286e-01  3.553791e-02  6.632742e+00  4.703577e-01  2.831357e+00
</event>
<event>
     4  9999  1.000000e+00  5.922544e+00  7.583862e-03  2.295620e-01
       21    -1     0     0   102   101  0.0000000000e+00  0.0000000000e+00  1.4751878259e+01  1.4751878259e+01  0.0000000000e+00 0. 9.
       21    -1     0     0   103   102  0.0000000000e+00  0.0000000000e+00 -6.2286810793e+00  6.2286810793e+00  0.0000000000e+00 0. 9.
       21     1     1     2   104   101 -2.8029313353e+00 -5.2172884340e+00  1.2510022244e+01  1.3841140821e+01  0.0000000000e+00 0. 9.
       21     1     1     2   103   104  2.8029313353e+00  5.2172884340e+00 -3.9868250644e+00  7.1394185175e+00  0.0000000000e+00 0. 9.
#pdf   21   21  1.475188e-01  6.228681e-02  5.922544e+00  7.611730e-01  1.811209e+00
</event>
<event>
     4  9999  1.000000e+00  5.010225e+00  7.570416e-03  2.408476e-01
       21    -1     0     0   102   101  0.0000000000e+00  0.0000000000e+00  1.7089832373e+01  1.7089832373e+01  0.0000000000e+00 0. 9.
       21    -1     0     0   104   103  0.0000000000e+00  0.0000000000e+00 -4.3870186776e+00  4.3870186776e+00  0.0000000000e+00 0. 9.
       21     1     1     2   104   101  1.1586685299e+00 -4.8744064002e+00 -2.4067209944e+00  5.5582961834e+00  0.0000000000e+00 0. 9.
       21     1     1     2   102   103 -1.1586685299e+00  4.8744064002e+00  1.5109534690e+01  1.5918554867e+01  0.0000000000e+00 0. 9.
#pdf   21   21  1.708983e-01  4.387019e-02  5.010225e+00  6.608660e-01  2.392218e+00
</event>
<event>
     4  9999  1.000000e+00  7.200671e+00  7.599629e-03  2.176488e-01
        2    -1     0     0   101     0  0.0000000000e+00  0.0000000000e+00  1.1105427623e+01  1.1105427623e+01  0.0000000000e+00 0. 9.
        2    -1     0     0   102     0  0.0000000000e+00  0.0000000000e+00 -6.3255412438e+00  6.3255412438e+00  0.0000000000e+00 0. 9.
        2     1     1     2   102     0  6.4040595712e+00  3.2798336743e+00  6.8467674902e+00  9.9376261244e+00  3.3000000000e-01 0. 9.
        2     1     1     2   101     0 -6.4040595712e+00 -3.2798336743e+00 -2.0668811113e+00  7.4933427422e+00  3.3000000000e-01 0. 9.
#pdf    2    2  1.110543e-01  6.325541e-02  7.200671e+00  6.255698e-01  6.076252e-01
</event>
<event>
     4  9999  1.000000e+00  5.247857e+00  7.574136e-03  2.376118e-01
       21    -1     0     0   102   101  0.0000000000e+00  0.0000000000e+00  3.1587625174e+00  3.1587625174e+00  0.0000000000e+00 0. 9.
       21    -1     0     0   101   103  0.0000000000e+00  0.0000000000e+00 -9.4325500021e+00  9.4325500021e+00  0.0000000000e+00 0. 9.
       21     1     1     2   104   103 -4.9830113465e+00 -1.6460859167e+00 -4.8689380490e+00  7.1586701733e+00  0.0000000000e+00 0. 9.
       21     1     1     2   102   104  4.9830113465e+00  1.6460859167e+00 -1.4048494356e+00  5.4326423462e+00  0.0000000000e+00 0. 9.
#pdf   21   21  3.158763e-02  9.432550e-02  5.247857e+00  3.028493e+00  1.242915e+00
</event>
<event>
     4  9999  1.000000e+00  7.081077e+00  7.598275e-03  2.186212e-01
        2    -1     0     0   101     0  0.0000000000e+00  0.0000000000e+00  2.7617913631e+01  2.7617913631e+01  0.0000000000e+00 0. 9.
       21    -1     0     0   102   103  0.0000000000e+00  0.0000000000e+00 -2.0090653418e+00  2.0090653418e+00  0.0000000000e+00 0. 9.
        2     1     1     2   102     0 -3.1907725324e+00  6.3175495604e+00  1.7405932559e+01  1.8792760576e+01  3.3000000000e-01 0. 9.
       21     1     1     2   101   103  3.1907725324e+00 -6.3175495604e+00  8.2029157302e+00  1.0834218397e+01  0.0000000000e+00 0. 9.
#pdf    2   21  2.761791e-01  2.009065e-02  7.081077e+00  4.912226e-01  4.193904e+00
</event>
<event>
     4  9999  1.000000e+00  5.118315e+00  7.572129e-03  2.393463e-01
       21    -1     0     0   102   101  0.0000000000e+00  0.0000000000e+00  1.1124783520e+01  1.1124783520e+01  0.0000000000e+00 0. 9.
        2    -1     0     0   101     0  0.0000000000e+00  0.0000000000e+00 -1.0344212639e+01  1.0344212639e+01  0.0000000000e+00 0. 9.
       21     1     1     2   102   103 -4.7507365710e-01  5.0950030871e+00  9.8218166313e+00  1.1074873967e+01  0.0000000000e+00 0. 9.
        2     1     1     2   103     0  4.7507365710e-01 -5.0950030871e+00 -9.0412457504e+00  1.0394122193e+01  3.3000000000e-01 0. 9.
#pdf   21    2  1.112478e-01  1.034421e-01  5.118315e+00  1.054018e+00  6.287556e-01
</event>
<event>
     4  9999  1.000000e+00  5.445467e+00  7.577106e-03  2.350923e-01
       21    -1     0     0   102   101  0.0000000000e+00  0.0000000000e+00  2.5081393927e+01  2.5081393927e+01  0.0000000000e+00 0. 9.
       21    -1     0     0   104   103  0.0000000000e+00  0.0000000000e+00 -1.1822778801e+00  1.1822778801e+00  0.0000000000e+00 0. 9.
       21     1     1     2   104   101  5.0629733721e+00 -2.0048475586e+00  1.1930244509e+01  1.3114261213e+01  0.0000000000e+00 0. 9.
       21     1     1     2   102   103 -5.0629733721e+00  2.0048475586e+00  1.1968871538e+01  1.3149410594e+01  0.0000000000e+00 0. 9.
#pdf   21   21  2.508139e-01  1.182278e-02  5.445467e+00  4.072463e-01  5.491920e+00
</event>
<event>
     4  9999  1.000000e+00  6.706029e+00  7.593879e-03  2.218417e-01
       21    -1     0     0   102   101  0.0000000000e+00  0.0000000000e+00  3.2146909866e+00  3.2146909866e+00  0.0000000000e+00 0. 9.
       21    -1     0     0   103   102  0.0000000000e+00  0.0000000000e+00 -2.5528418440e+01  2.5528418440e+01  0.0000000000e+00 0. 9.
       21     1     1     2   104   101 -3.5216319825e+00 -5.7069201787e+00 -1.4945590193e+00  6.8705557569e+00  0.0000000000e+00 0. 9.
       21     1     1     2   103   104  3.5216319825e+00  5.7069201787e+00 -2.0819168435e+01  2.1872553670e+01  0.0000000000e+00 0. 9.
#pdf   21   21  3.214691e-02  2.552842e-01  6.706029e+00  3.045253e+00  3.732852e-01
</event>
<event>
     4  9999  1.000000e+00  5.226204e+00  7.573804e-03  2.378970e-01
       21    -1     0     0   102   103  0.0000000000e+00  0.0000000000e+00  1.7884721832e+00  1.7884721832e+00  0.0000000000e+00 0. 9.
        1    -1     0     0   101     0  0.0000000000e+00  0.0000000000e+00 -1.5348201591e+01  1.5348201591e+01  0.0000000000e+00 0. 9.
       21     1     1     2   101   103  2.3123048803e+00  4.6810580641e+00 -6.1692550075e+00  8.0820025864e+00  0.0000000000e+00 0. 9.
        1     1     1     2   102     0 -2.3123048803e+00 -4.6810580641e+00 -7.3904744004e+00  9.0546711880e+00  3.3000000000e-01 0. 9.
#pdf   21    1  1.788472e-02  1.534820e-01  5.226204e+00  4.320333e+00  3.580050e-01
</event>
<event>
     4  9999  1.000000e+00  5.349558e+00  7.575678e-03  2.362968e-01
       21    -1     0     0   102   101  0.0000000000e+00  0.0000000000e+00  2.9008394094e+00  2.9008394094e+00  0.0000000000e+00 0. 9.
       21    -1     0     0   104   103  0.0000000000e+00  0.0000000000e+00 -1.0437012302e+01  1.0437012302e+01  0.0000000000e+00 0. 9.
       21     1     1     2   104   101 -3.0299926911e+00 -4.4087317723e+00 -5.3288631665e+00  7.5507982489e+00  0.0000000000e+00 0. 9.
       21     1     1     2   102   103  3.0299926911e+00  4.4087317723e+00 -2.2073097258e+00  5.7870534622e+00  0.0000000000e+00 0. 9.
#pdf   21   21  2.900839e-02  1.043701e-01  5.349558e+00  3.212457e+00  1.121454e+00
</event>
<event>
     4  9999  1.000000e+00  6.265411e+00  7.588396e-03  2.259993e-01
        2    -1     0     0   101     0  0.0000000000e+00  0.0000000000e+00  7.0937448465e+00  7.0937448465e+00  0.0000000000e+00 0. 9.
       21    -1     0     0   102   101  0.0000000000e+00  0.0000000000e+00 -2.0617724828e+01  2.0617724828e+01  0.0000000000e+00 0. 9.
        2     1     1     2   103     0 -6.1401333988e+00 -1.2407732377e+00  5.0858554221e+00  8.0756164939e+00  3.3000000000e-01 0. 9.
       21     1     1     2   102   103  6.1401333988e+00  1.2407732377e+00 -1.8609835404e+01  1.9635853181e+01  0.0000000000e+00 0. 9.
#pdf    2   21  7.093745e-02  2.061772e-01  6.265411e+00  6.120467e-01  5.046079e-01
</event>
<event>
     4  9999  1.000000e+00  6.749748e+00  7.594404e-03  2.214521e-01
       -3    -1     0     0     0   101  0.0000000000e+00  0.0000000000e+00  1.5096808920e+01  1.5096808920e+01  0.0000000000e+00 0. 9.
        2    -1     0     0   101     0  0.0000000000e+00  0.0000000000e+00 -8.3080259933e+00  8.3080259933e+00  0.0000000000e+00 0. 9.
       -3     1     1     2     0   102 -5.5132295026e+00 -3.8856422864e+00  1.2726880026e+01  1.4412404058e+01  5.0000000000e-01 0. 9.
        2     1     1     2   102     0  5.5132295026e+00  3.8856422864e+00 -5.9380970995e+00  8.9924308554e+00  3.3000000000e-01 0. 9.
#pdf   -3    2  1.509681e-01  8.308026e-02  6.749748e+00  2.274140e-02  6.197441e-01
</event>
<event>
     4  9999  1.000000e+00  6.071894e+00  7.585868e-03  2.279717e-01
       21    -1     0     0   101   102  0.0000000000e+00  0.0000000000e+00  1.9254198230e+00  1.9254198230e+00  0.0000000000e+00 0. 9.
       21    -1     0     0   103   104  0.0000000000e+00  0.0000000000e+00 -1.9154505019e+01  1.9154505019e+01  0.0000000000e+00 0. 9.
       21     1     1     2   101   104 -4.1961489461e-01  6.0573770433e+00 -8.4199551995e+00  1.0380921870e+01  0.0000000000e+00 0. 9.
       21     1     1     2   103   102  4.1961489461e-01 -6.0573770433e+00 -8.8091299968e+00  1.0699002973e+01  0.0000000000e+00 0. 9.
#pdf   21   21  1.925420e-02  1.915451e-01  6.071894e+00  4.227314e+00  5.570189e-01
</event>
<event>
     4  9999  1.000000e+00  8.085876e+00  7.609016e-03  2.111473e-01
       21    -1     0     0   102   103  0.0000000000e+00  0.0000000000e+00  4.5758077249e+00  4.5758077249e+00  0.0000000000e+00 0. 9.
        1    -1     0     0   101     0  0.0000000000e+00  0.0000000000e+00 -1.8147883744e+01  1.8147883744e+01  0.0000000000e+00 0. 9.
       21     1     1     2   101   103 -7.5884931333e+00 -2.7844753802e+00 -1.5459652520e+00  8.2297350952e+00  0.0000000000e+00 0. 9.
        1     1     1     2   102     0  7.5884931333e+00  2.7844753802e+00 -1.2026110767e+01  1.4493956373e+01  3.3000000000e-01 0. 9.
#pdf   21    1  4.575808e-02  1.814788e-01  8.085876e+00  2.339811e+00  3.169721e-01
</event>
<event>
     4  9999  1.000000e+00  5.905958e+00  7.583636e-03  2.297425e-01
       21    -1     0     0   102   101  0.0000000000e+00  0.0000000000e+00  7.0130160854e+00  7.0130160854e+00  0.0000000000e+00 0. 9.
       21    -1     0     0   101   103  0.0000000000e+00  0.0000000000e+00 -9.9333147828e+00  9.9333147828e+00  0.0000000000e+00 0. 9.
       21     1     1     2   104   103 -2.9654071424e+00 -5.1075136371e+00 -7.4473588010e+00  9.5049191571e+00  0.0000000000e+00 0. 9.
       21     1     1     2   102   104  2.9654071424e+00  5.1075136371e+00  4.5270601036e+00  7.4414117111e+00  0.0000000000e+00 0. 9.
#pdf   21   21  7.013016e-02  9.933315e-02  5.905958e+00  1.631708e+00  1.169542e+00
</event>
<event>
     4  9999  1.000000e+00  5.113852e+00  7.572059e-03  2.394073e-01
       -1    -1     0     0     0   101  0.0000000000e+00  0.0000000000e+00  7.6045458292e+00  7.6045458292e+00  0.0000000000e+00 0. 9.
        2    -1     0     0   101     0  0.0000000000e+00  0.0000000000e+00 -8.4023843198e+00  8.4023843198e+00  0.0000000000e+00 0. 9.
       -1     1     1     2     0   102 -3.0510976778e+00  4.0985017021e+00  5.7471647381e+00  7.6971238634e+00  3.3000000000e-01 0. 9.
        2     1     1     2   102     0  3.0510976778e+00 -4.0985017021e+00 -6.5450032287e+00  8.3098062857e+00  3.3000000000e-01 0. 9.
#pdf   -1    2  7.604546e-02  8.402384e-02  5.113852e+00  1.380014e-01  6.197369e-01
</event>
<event>
     4  9999  1.000000e+00  7.042868e+00  7.597838e-03  2.189372e-01
        2    -1     0     0   101     0  0.0000000000e+00  0.0000000000e+00  6.9438564268e+00  6.9438564268e+00  0.0000000000e+00 0. 9.
       21    -1     0     0   102   103  0.0000000000e+00  0.0000000000e+00 -8.6894675313e+00  8.6894675313e+00  0.0000000000e+00 0. 9.
        2     1     1     2   102     0 -5.8987181411e+00 -3.8421813996e+00  2.4225815424e+00  7.4521832334e+00  3.3000000000e-01 0. 9.
       21     1     1     2   101   103  5.8987181411e+00  3.8421813996e+00 -4.1681926469e+00  8.1811407247e+00  0.0000000000e+00 0. 9.
#pdf    2   21  6.943856e-02  8.689468e-02  7.042868e+00  6.120123e-01  1.319484e+00
</event>
<event>
     4  9999  1.000000e+00  6.006018e+00  7.584989e-03  2.286655e-01
       -2    -1     0     0     0   101  0.0000000000e+00  0.0000000000e+00  2.6153044748e+00  2.6153044748e+00  0.0000000000e+00 0. 9.
        2    -1     0     0   101     0  0.0000000000e+00  0.0000000000e+00 -2.8641341971e+01  2.8641341971e+01  0.0000000000e+00 0. 9.
       -2     1     1     2     0   102 -5.9289531355e+00  9.3130232014e-01 -1.7684616741e+00  6.2654741231e+00  3.3000000000e-01 0. 9.
        2     1     1     2   102     0  5.9289531355e+00 -9.3130232014e-01 -2.4257575822e+01  2.4991172323e+01  3.3000000000e-01 0. 9.
#pdf   -2    2  2.615304e-02  2.864134e-01  6.006018e+00  2.309812e-01  4.893450e-01
</event>
<event>
     4  9999  1.000000e+00  6.053071e+00  7.585618e-03  2.281687e-01
        2    -1     0     0   101     0  0.0000000000e+00  0.0000000000e+00  3.6591695660e+01  3.6591695660e+01  0.0000000000e+00 0. 9.
       21    -1     0     0   102   101  0.0000000000e+00  0.0000000000e+00 -1.1438063040e+00  1.1438063040e+00  0.0000000000e+00 0. 9.
        2     1     1     2   103     0 -7.1495857434e-01 -6.0067343040e+00  2.4390676712e+01  2.5131773380e+01  3.3000000000e-01 0. 9.
       21     1     1     2   102   103  7.1495857434e-01  6.0067343040e+00  1.1057212645e+01  1.2603728584e+01  0.0000000000e+00 0. 9.
#pdf    2   21  3.659170e-01  1.143806e-02  6.053071e+00  3.777893e-01  5.709967e+00
</event>
<event>
     4  9999  1.000000e+00  5.575452e+00  7.579002e-03  2.335122e-01
        2    -1     0     0   101     0  0.0000000000e+00  0.0000000000e+00  8.9776767063e-01  8.9776767063e-01  0.0000000000e+00 0. 9.
       21    -1     0     0   102   103  0.0000000000e+00  0.0000000000e+00 -3.7865448435e+01  3.7865448435e+01  0.0000000000e+00 0. 9.
        2     1     1     2   102     0  5.5541927003e+00 -4.3224209855e-01 -1.2833787478e+01  1.3994673659e+01  3.3000000000e-01 0. 9.
       21     1     1     2   101   103 -5.5541927003e+00  4.3224209855e-01 -2.4133893286e+01  2.4768542447e+01  0.0000000000e+00 0. 9.
#pdf    2   21  8.977677e-03  3.786545e-01  5.575452e+00  5.637978e-01  1.938224e-01
</event>
<event>
     4  9999  1.000000e+00  1.185058e+01  7.640776e-03  1.922168e-01
        2    -1     0     0   101     0  0.0000000000e+00  0.0000000000e+00  2.1736902980e+01  2.1736902980e+01  0.0000000000e+00 0. 9.
       21    -1     0     0   102   101  0.0000000000e+00  0.0000000000e+00 -9.9009318929e+00  9.9009318929e+00  0.0000000000e+00 0. 9.
        2     1     1     2   103     0  2.3325466621e+00  1.1617228810e+01  1.5242161956e+01  1.9308888633e+01  3.3000000000e-01 0. 9.
       21     1     1     2   102   103 -2.3325466621e+00 -1.1617228810e+01 -3.4061908688e+00  1.2328946240e+01  0.0000000000e+00 0. 9.
#pdf    2   21  2.173690e-01  9.900932e-02  1.185058e+01  5.340328e-01  1.099669e+00
</event>
<event>
     4  9999  1.000000e+00  5.467432e+00  7.577429e-03  2.348212e-01
        2    -1     0     0   101     0  0.0000000000e+00  0.0000000000e+00  3.0844546821e+01  3.0844546821e+01  0.0000000000e+00 0. 9.
       21    -1     0     0   102   101  0.0000000000e+00  0.0000000000e+00 -6.7290700431e+00  6.7290700431e+00  0.0000000000e+00 0. 9.
        2     1     1     2   103     0 -4.4600395999e+00  3.1611743388e+00  2.9438406832e+01  2.9943508032e+01  3.3000000000e-01 0. 9.
       21     1     1     2   102   103  4.4600395999e+00 -3.1611743388e+00 -5.3229300542e+00  7.6301088324e+00  0.0000000000e+00 0. 9.
#pdf    2   21  3.084455e-01  6.729070e-02  5.467432e+00  4.665799e-01  1.697060e+00
</event>
<event>
     4  9999  1.000000e+00  6.320252e+00  7.589099e-03  2.254575e-01
       -4    -1     0     0     0   101  0.0000000000e+00  0.0000000000e+00  5.8654869406e+00  5.8654869406e+00  0.0000000000e+00 0. 9.
       21    -1     0     0   103   102  0.0000000000e+00  0.0000000000e+00 -7.8743347181e+00  7.8743347181e+00  0.0000000000e+00 0. 9.
       -4     1     1     2     0   102  6.0696544241e+00  1.4621327812e+00  1.4779673748e+00  6.5888485078e+00  1.5000000000e+00 0. 9.
       21     1     1     2   103   101 -6.0696544241e+00 -1.4621327812e+00 -3.4868151523e+00  7.1509731509e+00  0.0000000000e+00 0. 9.
#pdf   -4   21  5.865487e-02  7.874335e-02  6.320252e+00  3.997781e-02  1.461894e+00
</event>
<event>
     4  9999  1.000000e+00  1.034465e+01  7.629288e-03  1.985456e-01
        2    -1     0     0   101     0  0.0000000000e+00  0.0000000000e+00  1.3320981681e+01  1.3320981681e+01  0.0000000000e+00 0. 9.
       21    -1     0     0   102   101  0.0000000000e+00  0.0000000000e+00 -9.6897295246e+00  9.6897295246e+00  0.0000000000e+00 0. 9.
        2     1     1     2   103     0 -9.1917939871e+00 -4.7410598434e+00  6.5719335371e+00  1.2258300680e+01  3.3000000000e-01 0. 9.
       21     1     1     2   102   103  9.1917939871e+00  4.7410598434e+00 -2.9406813805e+00  1.0752410526e+01  0.0000000000e+00 0. 9.
#pdf    2   21  1.332098e-01  9.689730e-02  1.034465e+01  6.123257e-01  1.140848e+00
</event>
<event>
     4  9999  1.000000e+00  9.408150e+00  7.621312e-03  2.032174e-01
        1    -1     0     0   101     0  0.0000000000e+00  0.0000000000e+00  8.0964735026e+00  8.0964735026e+00  0.0000000000e+00 0. 9.
        2    -1     0     0   102     0  0.0000000000e+00  0.0000000000e+00 -1.8814546851e+01  1.8814546851e+01  0.0000000000e+00 0. 9.
        1     1     1     2   102     0 -2.3139122190e+00 -9.1156908727e+00  3.3470362074e+00  9.9880709458e+00  3.3000000000e-01 0. 9.
        2     1     1     2   101     0  2.3139122190e+00  9.1156908727e+00 -1.4065109556e+01  1.6922949408e+01  3.3000000000e-01 0. 9.
#pdf    1    2  8.096474e-02  1.881455e-01  9.408150e+00  4.053537e-01  5.763414e-01
</event>
<event>
     4  9999  1.000000e+00  5.032871e+00  7.570778e-03  2.405289e-01
       21    -1     0     0   102   101  0.0000000000e+00  0.0000000000e+00  9.9947047618e-01  9.9947047618e-01  0.0000000000e+00 0. 9.
        2    -1     0     0   101     0  0.0000000000e+00  0.0000000000e+00 -2.5672675312e+01  2.5672675312e+01  0.0000000000e+00 0. 9.
       21     1     1     2   102   103  7.6516179239e-02  5.0269484479e+00 -1.0814345090e+01  1.1925859514e+01  0.0000000000e+00 0. 9.
        2     1     1     2   103     0 -7.6516179239e-02 -5.0269484479e+00 -1.3858859746e+01  1.4746286274e+01  3.3000000000e-01 0. 9.
#pdf   21    2  9.994705e-03  2.567268e-01  5.032871e+00  5.886427e+00  5.397126e-01
</event>
<event>
     4  9999  1.000000e+00  5.418473e+00  7.576706e-03  2.354280e-01
       21    -1     0     0   102   101  0.0000000000e+00  0.0000000000e+00  1.9258890313e+00  1.9258890313e+00  0.0000000000e+00 0. 9.
       21    -1     0     0   104   103  0.0000000000e+00  0.0000000000e+00 -1.8953985384e+01  1.8953985384e+01  0.0000000000e+00 0. 9.
       21     1     1     2   104   101 -2.0112952513e+00  5.0313556056e+00 -3.8957154049e+00  6.6735632412e+00  0.0000000000e+00 0. 9.
       21     1     1     2   102   103  2.0112952513e+00 -5.0313556056e+00 -1.3132380948e+01  1.4206311174e+01  0.0000000000e+00 0. 9.
#pdf   21   21  1.925889e-02  1.895399e-01  5.418473e+00  4.161745e+00  5.773404e-01
</event>
<event>
     4  9999  1.000000e+00  5.278867e+00  7.574609e-03  2.372066e-01
       21    -1     0     0   101   102  0.0000000000e+00  0.0000000000e+00  6.2129572470e+00  6.2129572470e+00  0.0000000000e+00 0. 9.
       21    -1     0     0   103   101  0.0000000000e+00  0.0000000000e+00 -6.2016171737e+00  6.2016171737e+00  0.0000000000e+00 0. 9.
       21     1     1     2   103   104  5.1245207178e+00  1.2671722528e+00 -3.2599008407e+00  6.2043042798e+00  0.0000000000e+00 0. 9.
       21     1     1     2   104   102 -5.1245207178e+00 -1.2671722528e+00  3.2712409141e+00  6.2102701409e+00  0.0000000000e+00 0. 9.
#pdf   21   21  6.212957e-02  6.201617e-02  5.278867e+00  1.818314e+00  1.821125e+00
</event>
<event>
     4  9999  1.000000e+00  5.094476e+00  7.571754e-03  2.396731e-01
       21    -1     0     0   102   101  0.0000000000e+00  0.0000000000e+00  1.6705600735e+01  1.6705600735e+01  0.0000000000e+00 0. 9.
       21    -1     0     0   103   102  0.0000000000e+00  0.0000000000e+00 -7.3518632954e+00  7.3518632954e+00  0.0000000000e+00 0. 9.
       21     1     1     2   104   101  2.1375664823e+00  4.6243370239e+00  1.5359307521e+01  1.6182150997e+01  0.0000000000e+00 0. 9.
       21     1     1     2   103   104 -2.1375664823e+00 -4.6243370239e+00 -6.0055700810e+00  7.8753130334e+00  0.0000000000e+00 0. 9.
#pdf   21   21  1.670560e-01  7.351863e-02  5.094476e+00  6.762781e-01  1.571612e+00
</event>
<event>
     4  9999  1.000000e+00  5.933959e+00  7.584017e-03  2.294382e-01
       21    -1     0     0   102   101  0.0000000000e+00  0.0000000000e+00  3.6494341442e+00  3.6494341442e+00  0.0000000000e+00 0. 9.
       21    -1     0     0   104   103  0.0000000000e+00  0.0000000000e+00 -1.7751204476e+01  1.7751204476e+01  0.0000000000e+00 0. 9.
       21     1     1     2   104   101 -5.9164318211e+00  4.5574013375e-01 -1.4280174836e+01  1.5463998768e+01  0.0000000000e+00 0. 9.
       21     1     1     2   102   103  5.9164318211e+00 -4.5574013375e-01  1.7840450407e-01  5.9366398518e+00  0.0000000000e+00 0. 9.
#pdf   21   21  3.649434e-02  1.775120e-01  5.933959e+00  2.761235e+00  6.135960e-01
</event>
<event>
     4  9999  1.000000e+00  6.728252e+00  7.594146e-03  2.216432e-01
        2    -1     0     0   101     0  0.0000000000e+00  0.0000000000e+00  3.0321484699e+01  3.0321484699e+01  0.0000000000e+00 0. 9.
       21    -1     0     0   102   103  0.0000000000e+00  0.0000000000e+00 -1.0531839014e+01  1.0531839014e+01  0.0000000000e+00 0. 9.
        2     1     1     2   102     0  2.0781226019e+00 -6.3986764850e+00  2.8817580708e+01  2.9594315538e+01  3.3000000000e-01 0. 9.
       21     1     1     2   101   103 -2.0781226019e+00  6.3986764850e+00 -9.0279350228e+00  1.1259008175e+01  0.0000000000e+00 0. 9.
#pdf    2   21  3.032148e-01  1.053184e-01  6.728252e+00  4.582742e-01  1.087395e+00
</event>
<event>
     4  9999  1.000000e+00  5.759899e+00  7.581620e-03  2.313666e-01
        1    -1     0     0   101     0  0.0000000000e+00  0.0000000000e+00  2.2005906549e+01  2.2005906549e+01  0.0000000000e+00 0. 9.
       21    -1     0     0   102   103  0.0000000000e+00  0.0000000000e+00 -5.4048174782e+00  5.4048174782e+00  0.0000000000e+00 0. 9.
        1     1     1     2   102     0 -4.9577461936e+00  2.9295055305e+00  1.9937730308e+01  2.0755318350e+01  3.3000000000e-01 0. 9.
       21     1     1     2   101   103  4.9577461936e+00 -2.9295055305e+00 -3.3366412378e+00  6.6554056768e+00  0.0000000000e+00 0. 9.
#pdf    1   21  2.200591e-01  5.404817e-02  5.759899e+00  2.885990e-01  2.040891e+00
</event>
<event>
     4  9999  1.000000e+00  5.706200e+00  7.580867e-03  2.319801e-01
       21    -1     0     0   101   102  0.0000000000e+00  0.0000000000e+00  7.4952273120e+00  7.4952273120e+00  0.0000000000e+00 0. 9.
       21    -1     0     0   103   104  0.0000000000e+00  0.0000000000e+00 -4.5109298253e+00  4.5109298253e+00  0.0000000000e+00 0. 9.
       21     1     1     2   101   104 -2.6915623483e+00 -5.0315214518e+00  3.3801427006e-01  5.7162023793e+00  0.0000000000e+00 0. 9.
       21     1     1     2   103   102  2.6915623483e+00  5.0315214518e+00  2.6462832167e+00  6.2899547580e+00  0.0000000000e+00 0. 9.
#pdf   21   21  7.495227e-02  4.510930e-02  5.706200e+00  1.538358e+00  2.354718e+00
</event>
<event>
     4  9999  1.000000e+00  2.015287e+01  7.685990e-03  1.709302e-01
        2    -1     0     0   101     0  0.0000000000e+00  0.0000000000e+00  9.9962817807e+00  9.9962817807e+00  0.0000000000e+00 0. 9.
       -2    -1     0     0     0   102  0.0000000000e+00  0.0000000000e+00 -4.1316177346e+01  4.1316177346e+01  0.0000000000e+00 0. 9.
       21     1     1     2   103   102 -6.7779616253e+00 -1.8978864405e+01 -1.8968933007e+01  2.7675954858e+01  0.0000000000e+00 0. 9.
       21     1     1     2   101   103  6.7779616253e+00  1.8978864405e+01 -1.2350962558e+01  2.3636504268e+01  0.0000000000e+00 0. 9.
#pdf    2   -2  9.996282e-02  4.131618e-01  2.015287e+01  6.121042e-01  3.842099e-03
</event>
<event>
     4  9999  1.000000e+00  6.147970e+00  7.586871e-03  2.271848e-01
       21    -1     0     0   101   102  0.0000000000e+00  0.0000000000e+00  2.4053428767e+01  2.4053428767e+01  0.0000000000e+00 0. 9.
       21    -1     0     0   102   103  0.0000000000e+00  0.0000000000e+00 -1.7822624666e+01  1.7822624666e+01  0.0000000000e+00 0. 9.
       21     1     1     2   101   104  2.3202877039e+00 -5.6933118635e+00  2.3109093191e+01  2.3912919586e+01  0.0000000000e+00 0. 9.
       21     1     1     2   104   103 -2.3202877039e+00  5.6933118635e+00 -1.6878289090e+01  1.7963133848e+01  0.0000000000e+00 0. 9.
#pdf   21   21  2.405343e-01  1.782262e-01  6.147970e+00  4.155568e-01  6.065978e-01
</event>
<event>
     4  9999  1.000000e+00  5.056410e+00  7.571152e-03  2.401999e-01
        2    -1     0     0   101     0  0.0000000000e+00  0.0000000000e+00  3.2778212337e+01  3.2778212337e+01  0.0000000000e+00 0. 9.
       21    -1     0     0   102   103  0.0000000000e+00  0.0000000000e+00 -1.0673193302e+00  1.0673193302e+00  0.0000000000e+00 0. 9.
        2     1     1     2   102     0  3.4600928733e+00 -3.6817475533e+00  2.4641066203e+01  2.5155885025e+01  3.3000000000e-01 0. 9.
       21     1     1     2   101   103 -3.4600928733e+00  3.6817475533e+00  7.0698268033e+00  8.6896466423e+00  0.0000000000e+00 0. 9.
#pdf    2   21  3.277821e-01  1.067319e-02  5.056410e+00  4.460632e-01  5.696642e+00
</event>
<event>
     4  9999  1.000000e+00  5.332122e+00  7.575415e-03  2.365195e-01
       21    -1     0     0   102   101  0.0000000000e+00  0.0000000000e+00  1.1774512191e+01  1.1774512191e+01  0.0000000000e+00 0. 9.
       21    -1     0     0   104   103  0.0000000000e+00  0.0000000000e+00 -3.6552070363e+00  3.6552070363e+00  0.0000000000e+00 0. 9.
       21     1     1     2   104   101 -1.1473958891e+00  5.2072071886e+00  8.5541119530e+00  1.0079898578e+01  0.0000000000e+00 0. 9.
       21     1     1     2   102   103  1.1473958891e+00 -5.2072071886e+00 -4.3480679843e-01  5.3498206496e+00  0.0000000000e+00 0. 9.
#pdf   21   21  1.177451e-01  3.655207e-02  5.332122e+00  9.894417e-01  2.741552e+00
</event>
<event>
     4  9999  1.000000e+00  5.816947e+00  7.582414e-03  2.307247e-01
       21    -1     0     0   101   102  0.0000000000e+00  0.0000000000e+00  8.0845516992e+00  8.0845516992e+00  0.0000000000e+00 0. 9.
       21    -1     0     0   103   101  0.0000000000e+00  0.0000000000e+00 -4.9434276132e+00  4.9434276132e+00  0.0000000000e+00 0. 9.
       21     1     1     2   103   104 -1.6358744985e+00  5.5821846966e+00 -9.8027653115e-01  5.8989671502e+00  0.0000000000e+00 0. 9.
       21     1     1     2   104   102  1.6358744985e+00 -5.5821846966e+00  4.1214006172e+00  7.1290121622e+00  0.0000000000e+00 0. 9.
#pdf   21   21  8.084552e-02  4.943428e-02  5.816947e+00  1.432451e+00  2.193034e+00
</event>
<event>
     4  9999  1.000000e+00  5.544684e+00  7.578557e-03  2.338810e-01
        1    -1     0     0   101     0  0.0000000000e+00  0.0000000000e+00  1.8392104052e+01  1.8392104052e+01  0.0000000000e+00 0. 9.
        3    -1     0     0   102     0  0.0000000000e+00  0.0000000000e+00 -1.7645315759e+00  1.7645315759e+00  0.0000000000e+00 0. 9.
        1     1     1     2   102     0  5.2448551421e+00 -1.7507301073e+00  1.0611724122e+01  1.1970428155e+01  3.3000000000e-01 0. 9.
        3     1     1     2   101     0 -5.2448551421e+00  1.7507301073e+00  6.0158483538e+00  8.1862074727e+00  5.0000000000e-01 0. 9.
#pdf    1    3  1.839210e-01  1.764532e-02  5.544684e+00  3.271786e-01  1.311728e-01
</event>
<event>
     4  9999  1.000000e+00  5.961477e+00  7.584390e-03  2.291414e-01
       -3    -1     0     0     0   101  0.0000000000e+00  0.0000000000e+00  1.4038457441e+01  1.4038457441e+01  0.0000000000e+00 0. 9.
       21    -1     0     0   101   102  0.0000000000e+00  0.0000000000e+00 -2.9027775051e+00  2.9027775051e+00  0.0000000000e+00 0. 9.
       -3     1     1     2     0   103  3.0695627565e+00 -5.0998097158e+00  8.6008926194e+00  1.0471658345e+01  5.0000000000e-01 0. 9.
       21     1     1     2   103   102 -3.0695627565e+00  5.0998097158e+00  2.5347873166e+00  6.4695766008e+00  0.0000000000e+00 0. 9.
#pdf   -3   21  1.403846e-01  2.902778e-02  5.961477e+00  2.429742e-02  3.241183e+00
</event>
<event>
     4  9999  1.000000e+00  5.687528e+00  7.580603e-03  2.321955e-01
       21    -1     0     0   101   102  0.0000000000e+00  0.0000000000e+00  2.7640227519e+01  2.7640227519e+01  0.0000000000e+00 0. 9.
       21    -1     0     0   102   103  0.0000000000e+00  0.0000000000e+00 -2.4268239845e+00  2.4268239845e+00  0.0000000000e+00 0. 9.
       21     1     1     2   101   104 -5.6804921406e+00 -2.8282238992e-01  2.3424109861e+01  2.4104707056e+01  0.0000000000e+00 0. 9.
       21     1     1     2   104   103  5.6804921406e+00  2.8282238992e-01  1.7892936736e+00  5.9623444478e+00  0.0000000000e+00 0. 9.
#pdf   21   21  2.764023e-01  2.426824e-02  5.687528e+00  3.513665e-01  3.629765e+00
</event>
<event>
     4  9999  1.000000e+00  5.848494e+00  7.582849e-03  2.303739e-01
        1    -1     0     0   101     0  0.0000000000e+00  0.0000000000e+00  4.3677919564e+01  4.3677919564e+01  0.0000000000e+00 0. 9.
       21    -1     0     0   102   101  0.0000000000e+00  0.0000000000e+00 -1.5552956912e+00  1.5552956912e+00  0.0000000000e+00 0. 9.
        1     1     1     2   103     0  2.3699153289e+00 -5.3442471510e+00  3.6999394757e+01  3.7459866372e+01  3.3000000000e-01 0. 9.
       21     1     1     2   102   103 -2.3699153289e+00  5.3442471510e+00  5.1232291157e+00  7.7733488825e+00  0.0000000000e+00 0. 9.
#pdf    1   21  4.367792e-01  1.555296e-02  5.848494e+00  9.511345e-02  4.772833e+00
</event>
<event>
     4  9999  1.000000e+00  5.806143e+00  7.582264e-03  2.308455e-01
       21    -1     0     0   101   102  0.0000000000e+00  0.0000000000e+00  3.5689724594e+00  3.5689724594e+00  0.0000000000e+00 0. 9.
       21    -1     0     0   103   101  0.0000000000e+00  0.0000000000e+00 -1.3710348269e+01  1.3710348269e+01  0.0000000000e+00 0. 9.
       21     1     1     2   103   104 -4.5616245161e+00  3.5920571343e+00 -9.8892358281e+00  1.1467705871e+01  0.0000000000e+00 0. 9.
       21     1     1     2   104   102  4.5616245161e+00 -3.5920571343e+00 -2.5213998177e-01  5.8116148575e+00  0.0000000000e+00 0. 9.
#pdf   21   21  3.568972e-02  1.371035e-01  5.806143e+00  2.802545e+00  8.292291e-01
</event>
<event>
     4  9999  1.000000e+00  5.220538e+00  7.573717e-03  2.379719e-01
       21    -1     0     0   102   101  0.0000000000e+00  0.0000000000e+00  1.6749843823e+00  1.6749843823e+00  0.0000000000e+00 0. 9.
       21    -1     0     0   101   103  0.0000000000e+00  0.0000000000e+00 -1.6443350108e+01  1.6443350108e+01  0.0000000000e+00 0. 9.
       21     1     1     2   104   103  2.8970421214e+00 -4.3429438958e+00 -8.3110982850e+00  9.8147016989e+00  0.0000000000e+00 0. 9.
       21     1     1     2   102   104 -2.8970421214e+00  4.3429438958e+00 -6.4572674408e+00  8.3036327916e+00  0.0000000000e+00 0. 9.
#pdf   21   21  1.674984e-02  1.644335e-01  5.220538e+00  4.486148e+00  6.858428e-01
</event>
<event>
     4  9999  1.000000e+00  5.153070e+00  7.572672e-03  2.388742e-01
        2    -1     0     0   101     0  0.0000000000e+00  0.0000000000e+00  1.1276163981e+01  1.1276163981e+01  0.0000000000e+00 0. 9.
       -2    -1     0     0     0   101  0.0000000000e+00  0.0000000000e+00 -4.6012559198e+00  4.6012559198e+00  0.0000000000e+00 0. 9.
        2     1     1     2   102     0 -2.3898222195e+00  4.5592917587e+00  8.8785509088e+00  1.0268201294e+01  3.3000000000e-01 0. 9.
       -2     1     1     2     0   102  2.3898222195e+00 -4.5592917587e+00 -2.2036428471e+00  5.6092186069e+00  3.3000000000e-01 0. 9.
#pdf    2   -2  1.127616e-01  4.601256e-02  5.153070e+00  6.307418e-01  1.552595e-01
</event>
<event>
     4  9999  1.000000e+00  5.364678e+00  7.575904e-03  2.361047e-01
        2    -1     0     0   101     0  0.0000000000e+00  0.0000000000e+00  6.6315783504e+00  6.6315783504e+00  0.0000000000e+00 0. 9.
        1    -1     0     0   102     0  0.0000000000e+00  0.0000000000e+00 -4.3400561729e+00  4.3400561729e+00  0.0000000000e+00 0. 9.
        2     1     1     2   102     0  4.9081707978e+00  2.1402656820e+00  1.1042905316e+00  5.4771557718e+00  3.3000000000e-01 0. 9.
        1     1     1     2   101     0 -4.9081707978e+00 -2.1402656820e+00  1.1872316459e+00  5.4944787516e+00  3.3000000000e-01 0. 9.
#pdf    2    1  6.631578e-02  4.340056e-02  5.364678e+00  6.063383e-01  4.249293e-01
</event>
<event>
     4  9999  1.000000e+00  5.638139e+00  7.579901e-03  2.327707e-01
       21    -1     0     0   102   103  0.0000000000e+00  0.0000000000e+00  3.6310295750e+00  3.6310295750e+00  0.0000000000e+00 0. 9.
        2    -1     0     0   101     0  0.0000000000e+00  0.0000000000e+00 -9.6090426439e+00  9.6090426439e+00  0.0000000000e+00 0. 9.
       21     1     1     2   101   103  5.4382394794e+00 -1.4712491876e+00 -1.0142756125e+00  5.7243146162e+00  0.0000000000e+00 0. 9.
        2     1     1     2   102     0 -5.4382394794e+00  1.4712491876e+00 -4.9637374564e+00  7.5157576027e+00  3.3000000000e-01 0. 9.
#pdf   21    2  3.631030e-02  9.609043e-02  5.638139e+00  2.763866e+00  6.256549e-01
</event>
<event>
     4  9999  1.000000e+00  6.182600e+00  7.587324e-03  2.268316e-01
        1    -1     0     0   101     0  0.0000000000e+00  0.0000000000e+00  2.0849791478e+01  2.0849791478e+01  0.0000000000e+00 0. 9.
       21    -1     0     0   102   103  0.0000000000e+00  0.0000000000e+00 -1.9408213361e+00  1.9408213361e+00  0.0000000000e+00 0. 9.
        1     1     1     2   102     0  3.1893492951e+00  5.2916138977e+00  1.2140804785e+01  1.3626487713e+01  3.3000000000e-01 0. 9.
       21     1     1     2   101   103 -3.1893492951e+00 -5.2916138977e+00  6.7681653569e+00  9.1641251010e+00  0.0000000000e+00 0. 9.
#pdf    1   21  2.084979e-01  1.940821e-02  6.182600e+00  2.980188e-01  4.216895e+00
</event>
<event>
     4  9999  1.000000e+00  5.527625e+00  7.578309e-03  2.340868e-01
        2    -1     0     0   101     0  0.0000000000e+00  0.0000000000e+00  1.9803213948e+01  1.9803213948e+01  0.0000000000e+00 0. 9.
       21    -1     0     0   102   103  0.0000000000e+00  0.0000000000e+00 -2.5687517781e+00  2.5687517781e+00  0.0000000000e+00 0. 9.
        2     1     1     2   102     0  5.4316067878e+00 -1.0097458590e+00  1.5686972852e+01  1.6634661291e+01  3.3000000000e-01 0. 9.
       21     1     1     2   101   103 -5.4316067878e+00  1.0097458590e+00  1.5474893180e+00  5.7373044356e+00  0.0000000000e+00 0. 9.
#pdf    2   21  1.980321e-01  2.568752e-02  5.527625e+00  5.940496e-01  3.489668e+00
</event>
<event>
     4  9999  1.000000e+00  5.195235e+00  7.573326e-03  2.383081e-01
       21    -1     0     0   102   101  0.0000000000e+00  0.0000000000e+00  3.9960957740e+00  3.9960957740e+00  0.0000000000e+00 0. 9.
       21    -1     0     0   104   103  0.0000000000e+00  0.0000000000e+00 -9.5302064808e+00  9.5302064808e+00  0.0000000000e+00 0. 9.
       21     1     1     2   104   101  1.0904511132e+00 -5.0795061193e+00 -6.4171781138e+00  8.2565513982e+00  0.0000000000e+00 0. 9.
       21     1     1     2   102   103 -1.0904511132e+00  5.0795061193e+00  8.8306740700e-01  5.2697508567e+00  0.0000000000e+00 0. 9.
#pdf   21   21  3.996096e-02  9.530206e-02  5.195235e+00  2.567175e+00  1.231201e+00
</event>
<event>
     4  9999  1.000000e+00  5.294686e+00  7.574849e-03  2.370014e-01
       21    -1     0     0   102   101  0.0000000000e+00  0.0000000000e+00  1.5435108121e+01  1.5435108121e+01  0.0000000000e+00 0. 9.
       21    -1     0     0   104   103  0.0000000000e+00  0.0000000000e+00 -1.5865293345e+01  1.5865293345e+01  0.0000000000e+00 0. 9.
       21     1     1     2   104   101 -1.8725848611e+00  4.9524873484e+00  1.4512085722e+01  1.5447793920e+01  0.0000000000e+00 0. 9.
       21     1     1     2   102   103  1.8725848611e+00 -4.9524873484e+00 -1.4942270946e+01  1.5852607546e+01  0.0000000000e+00 0. 9.
#pdf   21   21  1.543511e-01  1.586529e-01  5.294686e+00  7.352358e-01  7.127264e-01
</event>
<event>
     4  9999  1.000000e+00  5.059474e+00  7.571201e-03  2.401573e-01
        2    -1     0     0   101     0  0.0000000000e+00  0.0000000000e+00  7.4505169855e+01  7.4505169855e+01  0.0000000000e+00 0. 9.
       21    -1     0     0   102   103  0.0000000000e+00  0.0000000000e+00 -7.4108495644e-01  7.4108495644e-01  0.0000000000e+00 0. 9.
        2     1     1     2   102     0  3.6562414937e+00 -3.4935572737e+00  6.4441213461e+01  6.4640172777e+01  3.3000000000e-01 0. 9.
       21     1     1     2   101   103 -3.6562414937e+00  3.4935572737e+00  9.3228714375e+00  1.0606082035e+01  0.0000000000e+00 0. 9.
#pdf    2   21  7.450517e-01  7.410850e-03  5.059474e+00  2.712592e-02  6.848542e+00
</event>
<event>
     4  9999  1.000000e+00  5.109239e+00  7.571986e-03  2.394704e-01
       21    -1     0     0   101   102  0.0000000000e+00  0.0000000000e+00  6.2076385722e-01  6.2076385722e-01  0.0000000000e+00 0. 9.
       21    -1     0     0   103   101  0.0000000000e+00  0.0000000000e+00 -4.2371575000e+01  4.2371575000e+01  0.0000000000e+00 0. 9.
       21     1     1     2   103   104  1.1142053204e-01 -5.1080237439e+00 -2.2742449902e+01  2.3309297473e+01  0.0000000000e+00 0. 9.
       21     1     1     2   104   102 -1.1142053204e-01  5.1080237439e+00 -1.9008361240e+01  1.9683041384e+01  0.0000000000e+00 0. 9.
#pdf   21   21  6.207639e-03  4.237157e-01  5.109239e+00  7.483810e+00  1.451037e-01
</event>
<event>
     4  9999  1.000000e+00  5.414732e+00  7.576651e-03  2.354747e-01
       21    -1     0     0   101   102  0.0000000000e+00  0.0000000000e+00  1.4322871423e+01  1.4322871423e+01  0.0000000000e+00 0. 9.
       21    -1     0     0   102   103  0.0000000000e+00  0.0000000000e+00 -6.3007279741e+00  6.3007279741e+00  0.0000000000e+00 0. 9.
       21     1     1     2   101   104 -2.3052184655e+00  4.8995188636e+00  1.2483785520e+01  1.3607505950e+01  0.0000000000e+00 0. 9.
       21     1     1     2   104   103  2.3052184655e+00 -4.8995188636e+00 -4.4616420720e+00  7.0160934463e+00  0.0000000000e+00 0. 9.
#pdf   21   21  1.432287e-01  6.300728e-02  5.414732e+00  7.971497e-01  1.796716e+00
</event>
<event>
     4  9999  1.000000e+00  5.475716e+00  7.577551e-03  2.347194e-01
       21    -1     0     0   102   103  0.0000000000e+00  0.0000000000e+00  9.4503344068e+00  9.4503344068e+00  0.0000000000e+00 0. 9.
        2    -1     0     0   101     0  0.0000000000e+00  0.0000000000e+00 -3.8754203038e+00  3.8754203038e+00  0.0000000000e+00 0. 9.
       21     1     1     2   101   103 -5.5689787485e-01 -5.4432319190e+00  5.6204160791e+00  7.8439776816e+00  0.0000000000e+00 0. 9.
        2     1     1     2   102     0  5.5689787485e-01  5.4432319190e+00 -4.5501976086e-02  5.4817770291e+00  3.3000000000e-01 0. 9.
#pdf   21    2  9.450334e-02  3.875420e-02  5.475716e+00  1.237111e+00  5.740513e-01
</event>
<event>
     4  9999  1.000000e+00  5.113209e+00  7.572049e-03  2.394161e-01
        2    -1     0     0   101     0  0.0000000000e+00  0.0000000000e+00  4.8387638491e+01  4.8387638491e+01  0.0000000000e+00 0. 9.
        3    -1     0     0   102     0  0.0000000000e+00  0.0000000000e+00 -4.5887211347e+00  4.5887211347e+00  0.0000000000e+00 0. 9.
        2     1     1     2   102     0  5.0597821429e+00  7.2275976284e-01  4.6765784541e+01  4.7045417213e+01  3.3000000000e-01 0. 9.
        3     1     1     2   101     0 -5.0597821429e+00 -7.2275976284e-01 -2.9668671849e+00  5.9309424126e+00  5.0000000000e-01 0. 9.
#pdf    2    3  4.838764e-01  4.588721e-02  5.113209e+00  2.306431e-01  6.883452e-02
</event>
<event>
     4  9999  1.000000e+00  5.632979e+00  7.579828e-03  2.328312e-01
       21    -1     0     0   102   101  0.0000000000e+00  0.0000000000e+00  2.0610691682e+01  2.0610691682e+01  0.0000000000e+00 0. 9.
       21    -1     0     0   101   103  0.0000000000e+00  0.0000000000e+00 -2.6871831670e+00  2.6871831670e+00  0.0000000000e+00 0. 9.
       21     1     1     2   104   103 -3.0636595729e+00  4.7269912282e+00  1.3489271996e+00  5.7922414176e+00  0.0000000000e+00 0. 9.
       21     1     1     2   102   104  3.0636595729e+00 -4.7269912282e+00  1.6574581316e+01  1.7505633432e+01  0.0000000000e+00 0. 9.
#pdf   21   21  2.061069e-01  2.687183e-02  5.632979e+00  5.171025e-01  3.395161e+00
</event>
<event>
     4  9999  1.000000e+00  6.870675e+00  7.595838e-03  2.203946e-01
       21    -1     0     0   102   103  0.0000000000e+00  0.0000000000e+00  2.4805009715e+00  2.4805009715e+00  0.0000000000e+00 0. 9.
        1    -1     0     0   101     0  0.0000000000e+00  0.0000000000e+00 -2.8132498340e+01  2.8132498340e+01  0.0000000000e+00 0. 9.
       21     1     1     2   101   103 -6.0774224384e+00 -3.1991070729e+00 -4.1181547567e+00  8.0080302296e+00  0.0000000000e+00 0. 9.
        1     1     1     2   102     0  6.0774224384e+00  3.1991070729e+00 -2.1533842612e+01  2.2604969082e+01  3.3000000000e-01 0. 9.
#pdf   21    1  2.480501e-02  2.813250e-01  6.870675e+00  3.645932e+00  2.180801e-01
</event>
<event>
     4  9999  1.000000e+00  5.232329e+00  7.573898e-03  2.378161e-01
        1    -1     0     0   101     0  0.0000000000e+00  0.0000000000e+00  2.8141677160e+01  2.8141677160e+01  0.0000000000e+00 0. 9.
        1    -1     0     0   102     0  0.0000000000e+00  0.0000000000e+00 -1.4123306868e+01  1.4123306868e+01  0.0000000000e+00 0. 9.
        1     1     1     2   102     0 -4.4637835792e+00  2.7284439895e+00  2.7398077913e+01  2.7895041563e+01  3.3000000000e-01 0. 9.
        1     1     1     2   101     0  4.4637835792e+00 -2.7284439895e+00 -1.3379707621e+01  1.4369942466e+01  3.3000000000e-01 0. 9.
#pdf    1    1  2.814168e-01  1.412331e-01  5.232329e+00  2.286749e-01  3.685402e-01
</event>
<event>
     4  9999  1.000000e+00  5.191229e+00  7.573264e-03  2.383616e-01
       21    -1     0     0   102   103  0.0000000000e+00  0.0000000000e+00  7.7213943747e+00  7.7213943747e+00  0.0000000000e+00 0. 9.
        3    -1     0     0   101     0  0.0000000000e+00  0.0000000000e+00 -4.0589791172e+00  4.0589791172e+00  0.0000000000e+00 0. 9.
       21     1     1     2   101   103  5.0021657759e+00 -1.3490066656e+00  4.0281656362e+00  6.5625909385e+00  0.0000000000e+00 0. 9.
        3     1     1     2   102     0 -5.0021657759e+00  1.3490066656e+00 -3.6575037875e-01  5.2177825533e+00  5.0000000000e-01 0. 9.
#pdf   21    3  7.721394e-02  4.058979e-02  5.191229e+00  1.502770e+00  7.578072e-02
</event>
<event>
     4  9999  1.000000e+00  5.219087e+00  7.573694e-03  2.379911e-01
        1    -1     0     0   101     0  0.0000000000e+00  0.0000000000e+00  1.3215935919e+01  1.3215935919e+01  0.0000000000e+00 0. 9.
        1    -1     0     0   102     0  0.0000000000e+00  0.0000000000e+00 -2.8075906515e+00  2.8075906515e+00  0.0000000000e+00 0. 9.
        1     1     1     2   102     0 -2.1179222837e+00  4.7616521378e+00  9.3293826818e+00  1.0691361331e+01  3.3000000000e-01 0. 9.
        1     1     1     2   101     0  2.1179222837e+00 -4.7616521378e+00  1.0789625857e+00  5.3321652396e+00  3.3000000000e-01 0. 9.
#pdf    1    1  1.321594e-01  2.807591e-02  5.219087e+00  3.759738e-01  4.350370e-01
</event>
<event>
     4  9999  1.000000e+00  5.069303e+00  7.571357e-03  2.400208e-01
       21    -1     0     0   102   103  0.0000000000e+00  0.0000000000e+00  1.2669358187e+01  1.2669358187e+01  0.0000000000e+00 0. 9.
        2    -1     0     0   101     0  0.0000000000e+00  0.0000000000e+00 -8.3829296190e+00  8.3829296190e+00  0.0000000000e+00 0. 9.
       21     1     1     2   101   103 -1.3320733225e+00 -4.8898096482e+00  1.1304946394e+01  1.2388965683e+01  0.0000000000e+00 0. 9.
        2     1     1     2   102     0  1.3320733225e+00  4.8898096482e+00 -7.0185178258e+00  8.6633221228e+00  3.3000000000e-01 0. 9.
#pdf   21    2  1.266936e-01  8.382930e-02  5.069303e+00  9.194671e-01  6.195783e-01
</event>
<event>
     4  9999  1.000000e+00  5.396668e+00  7.576382e-03  2.357010e-01
       21    -1     0     0   101   102  0.0000000000e+00  0.0000000000e+00  1.0915054644e+00  1.0915054644e+00  0.0000000000e+00 0. 9.
       21    -1     0     0   103   104  0.0000000000e+00  0.0000000000e+00 -3.3416801451e+01  3.3416801451e+01  0.0000000000e+00 0. 9.
       21     1     1     2   101   104 -1.3030405219e+00 -5.2369947048e+00 -8.4169696915e+00  9.9984702294e+00  0.0000000000e+00 0. 9.
       21     1     1     2   103   102  1.3030405219e+00  5.2369947048e+00 -2.3908326295e+01  2.4509836685e+01  0.0000000000e+00 0. 9.
#pdf   21   21  1.091505e-02  3.341680e-01  5.396668e+00  5.720125e+00  2.614559e-01
</event>
<event>
     4  9999  1.000000e+00  6.178596e+00  7.587272e-03  2.268723e-01
       21    -1     0     0   102   101  0.0000000000e+00  0.0000000000e+00  2.2938758218e+01  2.2938758218e+01  0.0000000000e+00 0. 9.
       21    -1     0     0   103   102  0.0000000000e+00  0.0000000000e+00 -9.7248498359e+00  9.7248498359e+00  0.0000000000e+00 0. 9.
       21     1     1     2   104   101 -3.6660211962e+00 -4.9734638050e+00  2.1475801394e+01  2.2346925944e+01  0.0000000000e+00 0. 9.
       21     1     1     2   103   104  3.6660211962e+00  4.9734638050e+00 -8.2618930115e+00  1.0316682110e+01  0.0000000000e+00 0. 9.
#pdf   21   21  2.293876e-01  9.724850e-02  6.178596e+00  4.416149e-01  1.190483e+00
</event>
<event>
     4  9999  1.000000e+00  6.787138e+00  7.594850e-03  2.211221e-01
       21    -1     0     0   102   101  0.0000000000e+00  0.0000000000e+00  1.8390658523e+00  1.8390658523e+00  0.0000000000e+00 0. 9.
       21    -1     0     0   104   103  0.0000000000e+00  0.0000000000e+00 -2.5998755943e+01  2.5998755943e+01  0.0000000000e+00 0. 9.
       21     1     1     2   104   101 -3.7019262541e+00  5.6886716573e+00 -1.4741327048e+01  1.6228738902e+01  0.0000000000e+00 0. 9.
       21     1     1     2   102   103  3.7019262541e+00 -5.6886716573e+00 -9.4183630420e+00  1.1609082893e+01  0.0000000000e+00 0. 9.
#pdf   21   21  1.839066e-02  2.599876e-01  6.787138e+00  4.411785e+00  3.622852e-01
</event>
<event>
     4  9999  1.000000e+00  5.130936e+00  7.572327e-03  2.391743e-01
       21    -1     0     0   102   101  0.0000000000e+00  0.0000000000e+00  1.8067056564e+01  1.8067056564e+01  0.0000000000e+00 0. 9.
       21    -1     0     0   104   103  0.0000000000e+00  0.0000000000e+00 -2.1114236409e+00  2.1114236409e+00  0.0000000000e+00 0. 9.
       21     1     1     2   104   101 -2.8618365869e+00 -4.2586844635e+00  2.3615356228e+00  5.6483052775e+00  0.0000000000e+00 0. 9.
       21     1     1     2   102   103  2.8618365869e+00  4.2586844635e+00  1.3594097301e+01  1.4530174928e+01  0.0000000000e+00 0. 9.
#pdf   21   21  1.806706e-01  2.111424e-02  5.130936e+00  6.172751e-01  3.903834e+00
</event>
<event>
     4  9999  1.000000e+00  5.014274e+00  7.570481e-03  2.407905e-01
        1    -1     0     0   101     0  0.0000000000e+00  0.0000000000e+00  7.3289638134e+00  7.3289638134e+00  0.0000000000e+00 0. 9.
       -1    -1     0     0     0   101  0.0000000000e+00  0.0000000000e+00 -3.4348399070e+00  3.4348399070e+00  0.0000000000e+00 0. 9.
        1     1     1     2   102     0 -1.0452486138e+00 -4.8930192027e+00  1.7590075510e+00  5.3138676260e+00  3.3000000000e-01 0. 9.
       -1     1     1     2     0   102  1.0452486138e+00  4.8930192027e+00  2.1351163554e+00  5.4499360944e+00  3.3000000000e-01 0. 9.
#pdf    1   -1  7.328964e-02  3.434840e-02  5.014274e+00  4.119925e-01  2.272116e-01
</event>
<event>
     4  9999  1.000000e+00  5.934620e+00  7.584026e-03  2.294311e-01
       21    -1     0     0   102   101  0.0000000000e+00  0.0000000000e+00  1.2525708754e+01  1.2525708754e+01  0.0000000000e+00 0. 9.
       21    -1     0     0   104   103  0.0000000000e+00  0.0000000000e+00 -7.2251511529e+00  7.2251511529e+00  0.0000000000e+00 0. 9.
       21     1     1     2   104   101 -5.8571150126e+00 -9.5598935588e-01  1.0368497577e+01  1.1946775880e+01  0.0000000000e+00 0. 9.
       21     1     1     2   102   103  5.8571150126e+00  9.5598935588e-01 -5.0679399751e+00  7.8040840277e+00  0.0000000000e+00 0. 9.
#pdf   21   21  1.252571e-01  7.225151e-02  5.934620e+00  9.141672e-01  1.588035e+00
</event>
<event>
     4  9999  1.000000e+00  5.533962e+00  7.578402e-03  2.340102e-01
        2    -1     0     0   101     0  0.0000000000e+00  0.0000000000e+00  9.4352880572e-01  9.4352880572e-01  0.0000000000e+00 0. 9.
       21    -1     0     0   102   103  0.0000000000e+00  0.0000000000e+00 -3.4445620030e+01  3.4445620030e+01  0.0000000000e+00 0. 9.
        2     1     1     2   102     0  2.1134112119e+00  5.1094958396e+00 -1.2517781160e+01  1.3688579176e+01  3.3000000000e-01 0. 9.
       21     1     1     2   101   103 -2.1134112119e+00 -5.1094958396e+00 -2.0984310065e+01  2.1700569660e+01  0.0000000000e+00 0. 9.
#pdf    2   21  9.435288e-03  3.444562e-01  5.533962e+00  5.611163e-01  2.430771e-01
</event>
<event>
     4  9999  1.000000e+00  6.846173e+00  7.595549e-03  2.206066e-01
       21    -1     0     0   101   102  0.0000000000e+00  0.0000000000e+00  2.8158580262e+01  2.8158580262e+01  0.0000000000e+00 0. 9.
       21    -1     0     0   103   101  0.0000000000e+00  0.0000000000e+00 -2.0597787900e+01  2.0597787900e+01  0.0000000000e+00 0. 9.
       21     1     1     2   103   104  3.4368771611e+00 -5.9209758995e+00 -1.9592042570e+01  2.0753751764e+01  0.0000000000e+00 0. 9.
       21     1     1     2   104   102 -3.4368771611e+00  5.9209758995e+00  2.7152834932e+01  2.8002616397e+01  0.0000000000e+00 0. 9.
#pdf   21   21  2.815858e-01  2.059779e-01  6.846173e+00  3.199522e-01  4.952060e-01
</event>
<event>
     4  9999  1.000000e+00  5.111085e+00  7.572015e-03  2.394451e-01
       21    -1     0     0   101   102  0.0000000000e+00  0.0000000000e+00  1.4515247208e+00  1.4515247208e+00  0.0000000000e+00 0. 9.
       21    -1     0     0   103   104  0.0000000000e+00  0.0000000000e+00 -1.7998560869e+01  1.7998560869e+01  0.0000000000e+00 0. 9.
       21     1     1     2   101   104 -3.5108955245e+00 -3.7144044645e+00 -8.3621118415e+00  9.8004133770e+00  0.0000000000e+00 0. 9.
       21     1     1     2   103   102  3.5108955245e+00  3.7144044645e+00 -8.1849243068e+00  9.6496722130e+00  0.0000000000e+00 0. 9.
#pdf   21   21  1.451525e-02  1.799856e-01  5.111085e+00  4.842656e+00  6.204487e-01
</event>
<event>
     4  9999  1.000000e+00  5.750512e+00  7.581489e-03  2.314732e-01
        2    -1     0     0   101     0  0.0000000000e+00  0.0000000000e+00  1.7498508558e+01  1.7498508558e+01  0.0000000000e+00 0. 9.
        1    -1     0     0   102     0  0.0000000000e+00  0.0000000000e+00 -3.2108220159e+00  3.2108220159e+00  0.0000000000e+00 0. 9.
        2     1     1     2   102     0 -5.7430231396e+00  1.4825010376e-01  1.3779202508e+01  1.4932501955e+01  3.3000000000e-01 0. 9.
        1     1     1     2   101     0  5.7430231396e+00 -1.4825010376e-01  5.0848403349e-01  5.7768286185e+00  3.3000000000e-01 0. 9.
#pdf    2    1  1.749851e-01  3.210822e-02  5.750512e+00  6.094901e-01  4.342747e-01
</event>
<event>
     4  9999  1.000000e+00  5.881135e+00  7.583297e-03  2.300140e-01
       21    -1     0     0   102   103  0.0000000000e+00  0.0000000000e+00  3.6823232362e+00  3.6823232362e+00  0.0000000000e+00 0. 9.
        2    -1     0     0   101     0  0.0000000000e+00  0.0000000000e+00 -3.6121733350e+01  3.6121733350e+01  0.0000000000e+00 0. 9.
       21     1     1     2   101   103  5.3576602114e-01 -5.8554716238e+00  9.0007773406e-01  5.9484227400e+00  0.0000000000e+00 0. 9.
        2     1     1     2   102     0 -5.3576602114e-01  5.8554716238e+00 -3.3339487848e+01  3.3855633846e+01  3.3000000000e-01 0. 9.
#pdf   21    2  3.682323e-02  3.612173e-01  5.881135e+00  2.742131e+00  3.866708e-01
</event>
<event>
     4  9999  1.000000e+00  7.019051e+00  7.597564e-03  2.191355e-01
       21    -1     0     0   102   101  0.0000000000e+00  0.0000000000e+00  4.1299937012e+00  4.1299937012e+00  0.0000000000e+00 0. 9.
       21    -1     0     0   104   103  0.0000000000e+00  0.0000000000e+00 -1.2025056389e+01  1.2025056389e+01  0.0000000000e+00 0. 9.
       21     1     1     2   104   101 -3.7996250610e+00 -5.9016887576e+00 -3.2259479473e+00  7.7248832324e+00  0.0000000000e+00 0. 9.
       21     1     1     2   102   103  3.7996250610e+00  5.9016887576e+00 -4.6691147409e+00  8.4301668583e+00  0.0000000000e+00 0. 9.
#pdf   21   21  4.129994e-02  1.202506e-01  7.019051e+00  2.533424e+00  9.375583e-01
</event>
<event>
     4  9999  1.000000e+00  7.109452e+00  7.598598e-03  2.183883e-01
       21    -1     0     0   102   103  0.0000000000e+00  0.0000000000e+00  1.8744274876e+01  1.8744274876e+01  0.0000000000e+00 0. 9.
        1    -1     0     0   101     0  0.0000000000e+00  0.0000000000e+00 -3.0953183487e+01  3.0953183487e+01  0.0000000000e+00 0. 9.
       21     1     1     2   101   103  5.6890966973e+00 -4.2630679902e+00  1.7636426184e+01  1.9015338506e+01  0.0000000000e+00 0. 9.
        1     1     1     2   102     0 -5.6890966973e+00  4.2630679902e+00 -2.9845334795e+01  3.0682119857e+01  3.3000000000e-01 0. 9.
#pdf   21    1  1.874427e-01  3.095318e-01  7.109452e+00  5.541578e-01  1.892787e-01
</event>
<event>
     4  9999  1.000000e+00  5.035083e+00  7.570813e-03  2.404978e-01
       21    -1     0     0   101   102  0.0000000000e+00  0.0000000000e+00  9.7156077300e+00  9.7156077300e+00  0.0000000000e+00 0. 9.
       21    -1     0     0   103   101  0.0000000000e+00  0.0000000000e+00 -4.1270402329e+00  4.1270402329e+00  0.0000000000e+00 0. 9.
       21     1     1     2   103   104 -5.0197793155e+00 -3.9227224327e-01 -1.4028417872e+00  5.2268563180e+00  0.0000000000e+00 0. 9.
       21     1     1     2   104   102  5.0197793155e+00  3.9227224327e-01  6.9914092843e+00  8.6157916450e+00  0.0000000000e+00 0. 9.
#pdf   21   21  9.715608e-02  4.127040e-02  5.035083e+00  1.210584e+00  2.502805e+00
</event>
<event>
     4  9999  1.000000e+00  5.131943e+00  7.572342e-03  2.391606e-01
       21    -1     0     0   102   101  0.0000000000e+00  0.0000000000e+00  2.0945647700e+00  2.0945647700e+00  0.0000000000e+00 0. 9.
        2    -1     0     0   101     0  0.0000000000e+00  0.0000000000e+00 -5.8469345680e+01  5.8469345680e+01  0.0000000000e+00 0. 9.
       21     1     1     2   102   103  1.6725751367e+00  4.8505278535e+00 -1.3580802785e+00  5.3074956512e+00  0.0000000000e+00 0. 9.
        2     1     1     2   103     0 -1.6725751367e+00 -4.8505278535e+00 -5.5016700631e+01  5.5256414799e+01  3.3000000000e-01 0. 9.
#pdf   21    2  2.094565e-02  5.846935e-01  5.131943e+00  3.922848e+00  1.230110e-01
</event>
<event>
     4  9999  1.000000e+00  5.584986e+00  7.579140e-03  2.333986e-01
        2    -1     0     0   101     0  0.0000000000e+00  0.0000000000e+00  2.5963340366e+01  2.5963340366e+01  0.0000000000e+00 0. 9.
       21    -1     0     0   102   103  0.0000000000e+00  0.0000000000e+00 -1.9418399254e+00  1.9418399254e+00  0.0000000000e+00 0. 9.
        2     1     1     2   102     0 -5.3461217658e-01  5.5563103245e+00  3.4060758939e+00  6.5474153371e+00  3.3000000000e-01 0. 9.
       21     1     1     2   101   103  5.3461217658e-01 -5.5563103245e+00  2.0615424547e+01  2.1357764955e+01  0.0000000000e+00 0. 9.
#pdf    2   21  2.596334e-01  1.941840e-02  5.584986e+00  5.287413e-01  4.158499e+00
</event>
<event>
     4  9999  1.000000e+00  5.758847e+00  7.581606e-03  2.313785e-01
       -2    -1     0     0     0   101  0.0000000000e+00  0.0000000000e+00  2.3420650652e+00  2.3420650652e+00  0.0000000000e+00 0. 9.
       21    -1     0     0   103   102  0.0000000000e+00  0.0000000000e+00 -3.8535410199e+01  3.8535410199e+01  0.0000000000e+00 0. 9.
       -2     1     1     2     0   102 -5.1380394996e+00 -2.5970886096e+00 -1.8516431231e+00  6.0565502888e+00  3.3000000000e-01 0. 9.
       21     1     1     2   103   101  5.1380394996e+00  2.5970886096e+00 -3.4341702010e+01  3.4820924975e+01  0.0000000000e+00 0. 9.
#pdf   -2   21  2.342065e-02  3.853541e-01  5.758847e+00  2.450811e-01  1.814615e-01
</event>
<event>
     4  9999  1.000000e+00  7.048895e+00  7.597907e-03  2.188872e-01
       21    -1     0     0   102   101  0.0000000000e+00  0.0000000000e+00  7.1775110594e+00  7.1775110594e+00  0.0000000000e+00 0. 9.
       21    -1     0     0   101   103  0.0000000000e+00  0.0000000000e+00 -2.3770019443e+01  2.3770019443e+01  0.0000000000e+00 0. 9.
       21     1     1     2   104   103  5.9841664519e+00  3.7251402915e+00 -2.1323366125e+01  2.2458247065e+01  0.0000000000e+00 0. 9.
       21     1     1     2   102   104 -5.9841664519e+00 -3.7251402915e+00  4.7308577415e+00  8.4892834377e+00  0.0000000000e+00 0. 9.
#pdf   21   21  7.177511e-02  2.377002e-01  7.048895e+00  1.585722e+00  4.065522e-01
</event>
<event>
     4  9999  1.000000e+00  6.352181e+00  7.589505e-03  2.251454e-01
       21    -1     0     0   101   102  0.0000000000e+00  0.0000000000e+00  3.9210106456e+00  3.9210106456e+00  0.0000000000e+00 0. 9.
       21    -1     0     0   103   101  0.0000000000e+00  0.0000000000e+00 -1.3906477845e+01  1.3906477845e+01  0.0000000000e+00 0. 9.
       21     1     1     2   103   104 -2.4310050315e+00  5.8685957671e+00 -9.5378867428e+00  1.1459558685e+01  0.0000000000e+00 0. 9.
       21     1     1     2   104   102  2.4310050315e+00 -5.8685957671e+00 -4.4758045659e-01  6.3679298054e+00  0.0000000000e+00 0. 9.
#pdf   21   21  3.921011e-02  1.390648e-01  6.352181e+00  2.627813e+00  8.060793e-01
</event>
<event>
     4  9999  1.000000e+00  5.699269e+00  7.580769e-03  2.320599e-01
       -1    -1     0     0     0   101  0.0000000000e+00  0.0000000000e+00  6.3586264378e+00  6.3586264378e+00  0.0000000000e+00 0. 9.
       21    -1     0     0   103   102  0.0000000000e+00  0.0000000000e+00 -5.1447607151e+00  5.1447607151e+00  0.0000000000e+00 0. 9.
       -1     1     1     2     0   102 -5.5405541887e+00  1.3152529987e+00  1.2353677580e-01  5.7054178203e+00  3.3000000000e-01 0. 9.
       21     1     1     2   103   101  5.5405541887e+00 -1.3152529987e+00  1.0903289470e+00  5.7979693326e+00  0.0000000000e+00 0. 9.
#pdf   -1   21  6.358626e-02  5.144761e-02  5.699269e+00  1.580237e-01  2.123921e+00
</event>
<event>
     4  9999  1.000000e+00  5.048705e+00  7.571030e-03  2.403073e-01
       21    -1     0     0   102   101  0.0000000000e+00  0.0000000000e+00  1.6603434942e+01  1.6603434942e+01  0.0000000000e+00 0. 9.
       21    -1     0     0   101   103  0.0000000000e+00  0.0000000000e+00 -2.1735304802e+01  2.1735304802e+01  0.0000000000e+00 0. 9.
       21     1     1     2   104   103  4.9304454591e+00 -1.0863370233e+00 -2.1045931783e+01  2.1643028096e+01  0.0000000000e+00 0. 9.
       21     1     1     2   102   104 -4.9304454591e+00  1.0863370233e+00  1.5914061923e+01  1.6695711648e+01  0.0000000000e+00 0. 9.
#pdf   21   21  1.660343e-01  2.173530e-01  5.048705e+00  6.819836e-01  4.968176e-01
</event>
<event>
     4  9999  1.000000e+00  6.071748e+00  7.585866e-03  2.279732e-01
       21    -1     0     0   102   101  0.0000000000e+00  0.0000000000e+00  1.7563212193e+01  1.7563212193e+01  0.0000000000e+00 0. 9.
        1    -1     0     0   101     0  0.0000000000e+00  0.0000000000e+00 -1.5944045539e+01  1.5944045539e+01  0.0000000000e+00 0. 9.
       21     1     1     2   102   103 -3.1607725832e+00  5.1834806135e+00  1.6419894748e+01  1.7506338799e+01  0.0000000000e+00 0. 9.
        1     1     1     2   103     0  3.1607725832e+00 -5.1834806135e+00 -1.4800728094e+01  1.6000918933e+01  3.3000000000e-01 0. 9.
#pdf   21    1  1.756321e-01  1.594405e-01  6.071748e+00  6.188245e-01  3.480234e-01
</event>
<event>
     4  9999  1.000000e+00  5.939093e+00  7.584087e-03  2.293827e-01
        1    -1     0     0   101     0  0.0000000000e+00  0.0000000000e+00  1.2133343625e+01  1.2133343625e+01  0.0000000000e+00 0. 9.
       21    -1     0     0   102   103  0.0000000000e+00  0.0000000000e+00 -5.9533066270e+00  5.9533066270e+00  0.0000000000e+00 0. 9.
        1     1     1     2   102     0 -7.2179056107e-01  5.8928142192e+00  9.5576207015e+00  1.1256254018e+01  3.3000000000e-01 0. 9.
       21     1     1     2   101   103  7.2179056107e-01 -5.8928142192e+00 -3.3775837039e+00  6.8303962339e+00  0.0000000000e+00 0. 9.
#pdf    1   21  1.213334e-01  5.953307e-02  5.939093e+00  3.815376e-01  1.882600e+00
</event>
<event>
     4  9999  1.000000e+00  6.632404e+00  7.592988e-03  2.225066e-01
       21    -1     0     0   102   101  0.0000000000e+00  0.0000000000e+00  2.8807606182e+00  2.8807606182e+00  0.0000000000e+00 0. 9.
       21    -1     0     0   104   103  0.0000000000e+00  0.0000000000e+00 -1.5274466194e+01  1.5274466194e+01  0.0000000000e+00 0. 9.
       21     1     1     2   104   101 -6.6263339804e+00  2.8368741404e-01 -6.3546730090e+00  9.1853497277e+00  0.0000000000e+00 0. 9.
       21     1     1     2   102   103  6.6263339804e+00 -2.8368741404e-01 -6.0390325667e+00  8.9698770844e+00  0.0000000000e+00 0. 9.
#pdf   21   21  2.880761e-02  1.527447e-01  6.632404e+00  3.286119e+00  7.187885e-01
</event>
<event>
     4  9999  1.000000e+00  5.944628e+00  7.584162e-03  2.293229e-01
        2    -1     0     0   101     0  0.0000000000e+00  0.0000000000e+00  1.1977394387e+01  1.1977394387e+01  0.0000000000e+00 0. 9.
       21    -1     0     0   102   103  0.0000000000e+00  0.0000000000e+00 -3.1562818626e+00  3.1562818626e+00  0.0000000000e+00 0. 9.
        2     1     1     2   102     0  7.5753277269e-01  5.8918475739e+00  6.3447166375e+00  8.6978188614e+00  3.3000000000e-01 0. 9.
       21     1     1     2   101   103 -7.5753277269e-01 -5.8918475739e+00  2.4763958874e+00  6.4358573886e+00  0.0000000000e+00 0. 9.
#pdf    2   21  1.197739e-01  3.156282e-02  5.944628e+00  6.287060e-01  3.060035e+00
</event>
<event>
     4  9999  1.000000e+00  5.009771e+00  7.570409e-03  2.408540e-01
       21    -1     0     0   102   101  0.0000000000e+00  0.0000000000e+00  2.2998165755e+00  2.2998165755e+00  0.0000000000e+00 0. 9.
       21    -1     0     0   104   103  0.0000000000e+00  0.0000000000e+00 -2.8465328241e+01  2.8465328241e+01  0.0000000000e+00 0. 9.
       21     1     1     2   104   101  1.9393474635e+00 -4.6191707696e+00 -1.0035404262e+00  5.1092955062e+00  0.0000000000e+00 0. 9.
       21     1     1     2   102   103 -1.9393474635e+00  4.6191707696e+00 -2.5161971240e+01  2.5655849311e+01  0.0000000000e+00 0. 9.
#pdf   21   21  2.299817e-02  2.846533e-01  5.009771e+00  3.693014e+00  3.522642e-01
</event>
<event>
     4  9999  1.000000e+00  5.633610e+00  7.579837e-03  2.328238e-01
       -3    -1     0     0     0   101  0.0000000000e+00  0.0000000000e+00  9.2160515904e-01  9.2160515904e-01  0.0000000000e+00 0. 9.
       21    -1     0     0   101   102  0.0000000000e+00  0.0000000000e+00 -4.7983964566e+01  4.7983964566e+01  0.0000000000e+00 0. 9.
       -3     1     1     2     0   103  5.5208397636e+00  1.0808524175e+00 -1.0590170838e+01  1.2002067823e+01  5.0000000000e-01 0. 9.
       21     1     1     2   103   102 -5.5208397636e+00 -1.0808524175e+00 -3.6472188569e+01  3.6903501902e+01  0.0000000000e+00 0. 9.
#pdf   -3   21  9.216052e-03  4.798396e-01  5.633610e+00  1.833485e-01  7.906737e-02
</event>
<event>
     4  9999  1.000000e+00  5.028550e+00  7.570709e-03  2.405895e-01
       21    -1     0     0   102   103  0.0000000000e+00  0.0000000000e+00  9.6374085942e+00  9.6374085942e+00  0.0000000000e+00 0. 9.
        4    -1     0     0   101     0  0.0000000000e+00  0.0000000000e+00 -7.0532467208e+00  7.0532467208e+00  0.0000000000e+00 0. 9.
       21     1     1     2   101   103 -4.8300243168e+00 -1.2411358663e+00  7.8400686510e+00  9.2917290959e+00  0.0000000000e+00 0. 9.
        4     1     1     2   102     0  4.8300243168e+00  1.2411358663e+00 -5.2559067776e+00  7.3989262190e+00  1.5000000000e+00 0. 9.
#pdf   21    4  9.637409e-02  7.053247e-02  5.028550e+00  1.220353e+00  3.025743e-02
</event>
<event>
     4  9999  1.000000e+00  5.969452e+00  7.584497e-03  2.290558e-01
       21    -1     0     0   102   103  0.0000000000e+00  0.0000000000e+00  2.9585711333e+01  2.9585711333e+01  0.0000000000e+00 0. 9.
        1    -1     0     0   101     0  0.0000000000e+00  0.0000000000e+00 -7.4932441022e+00  7.4932441022e+00  0.0000000000e+00 0. 9.
       21     1     1     2   101   103  1.2125789687e+00 -5.8442496708e+00  2.8027043357e+01  2.8655553760e+01  0.0000000000e+00 0. 9.
        1     1     1     2   102     0 -1.2125789687e+00  5.8442496708e+00 -5.9345761265e+00  8.4234016746e+00  3.3000000000e-01 0. 9.
#pdf   21    1  2.958571e-01  7.493244e-02  5.969452e+00  3.109193e-01  4.111452e-01
</event>
<event>
     4  9999  1.000000e+00  5.041411e+00  7.570914e-03  2.404092e-01
       21    -1     0     0   102   101  0.0000000000e+00  0.0000000000e+00  8.0398784637e+00  8.0398784637e+00  0.0000000000e+00 0. 9.
        1    -1     0     0   101     0  0.0000000000e+00  0.0000000000e+00 -6.0272311989e+00  6.0272311989e+00  0.0000000000e+00 0. 9.
       21     1     1     2   102   103  1.5410055539e+00 -4.7971425670e+00  5.8531801543e+00  7.7231465637e+00  0.0000000000e+00 0. 9.
        1     1     1     2   103     0 -1.5410055539e+00  4.7971425670e+00 -3.8405328895e+00  6.3439630989e+00  3.3000000000e-01 0. 9.
#pdf   21    1  8.039878e-02  6.027231e-02  5.041411e+00  1.449667e+00  4.170229e-01
</event>
<event>
     4  9999  1.000000e+00  7.806394e+00  7.606165e-03  2.130783e-01
        2    -1     0     0   101     0  0.0000000000e+00  0.0000000000e+00  1.8885408084e+01  1.8885408084e+01  0.0000000000e+00 0. 9.
       21    -1     0     0   102   103  0.0000000000e+00  0.0000000000e+00 -5.0124730555e+00  5.0124730555e+00  0.0000000000e+00 0. 9.
        2     1     1     2   102     0  7.2127481008e+00  2.9801007143e+00  1.4068259776e+01  1.6091288592e+01  3.3000000000e-01 0. 9.
       21     1     1     2   101   103 -7.2127481008e+00 -2.9801007143e+00 -1.9532474817e-01  7.8065925467e+00  0.0000000000e+00 0. 9.
#pdf    2   21  1.888541e-01  5.012473e-02  7.806394e+00  5.844609e-01  2.170453e+00
</event>
<event>
     4  9999  1.000000e+00  7.121142e+00  7.598731e-03  2.182927e-01
       21    -1     0     0   102   101  0.0000000000e+00  0.0000000000e+00  2.9596412281e+00  2.9596412281e+00  0.0000000000e+00 0. 9.
       21    -1     0     0   101   103  0.0000000000e+00  0.0000000000e+00 -1.9940467819e+01  1.9940467819e+01  0.0000000000e+00 0. 9.
       21     1     1     2   104   103  6.5664539147e+00 -2.7554209327e+00 -1.2785930922e+01  1.4635255074e+01  0.0000000000e+00 0. 9.
       21     1     1     2   102   104 -6.5664539147e+00  2.7554209327e+00 -4.1948956690e+00  8.2648539736e+00  0.0000000000e+00 0. 9.
#pdf   21   21  2.959641e-02  1.994047e-01  7.121142e+00  3.239641e+00  5.119298e-01
</event>
<event>
     4  9999  1.000000e+00  6.966682e+00  7.596959e-03  2.195752e-01
       21    -1     0     0   102   101  0.0000000000e+00  0.0000000000e+00  1.6489801013e+01  1.6489801013e+01  0.0000000000e+00 0. 9.
       21    -1     0     0   104   103  0.0000000000e+00  0.0000000000e+00 -2.9653198211e+00  2.9653198211e+00  0.0000000000e+00 0. 9.
       21     1     1     2   104   101 -5.2604918638e+00 -4.5674804602e+00  7.6002382525e+00  1.0310105426e+01  0.0000000000e+00 0. 9.
       21     1     1     2   102   103  5.2604918638e+00  4.5674804602e+00  5.9242429389e+00  9.1450154074e+00  0.0000000000e+00 0. 9.
#pdf   21   21  1.648980e-01  2.965320e-02  6.966682e+00  6.512129e-01  3.230885e+00
</event>
<event>
     4  9999  1.000000e+00  5.148949e+00  7.572608e-03  2.389299e-01
       21    -1     0     0   102   101  0.0000000000e+00  0.0000000000e+00  2.9563661102e+01  2.9563661102e+01  0.0000000000e+00 0. 9.
       21    -1     0     0   103   102  0.0000000000e+00  0.0000000000e+00 -1.3166806422e+00  1.3166806422e+00  0.0000000000e+00 0. 9.
       21     1     1     2   104   101 -3.8020008396e+00 -3.4722417961e+00  2.2843010814e+01  2.3416123004e+01  0.0000000000e+00 0. 9.
       21     1     1     2   103   104  3.8020008396e+00  3.4722417961e+00  5.4039696457e+00  7.4642187406e+00  0.0000000000e+00 0. 9.
#pdf   21   21  2.956366e-01  1.316681e-02  5.148949e+00  3.295927e-01  5.116673e+00
</event>
<event>
     4  9999  1.000000e+00  6.018801e+00  7.585160e-03  2.285300e-01
       21    -1     0     0   102   101  0.0000000000e+00  0.0000000000e+00  1.2022534354e+01  1.2022534354e+01  0.0000000000e+00 0. 9.
       21    -1     0     0   104   103  0.0000000000e+00  0.0000000000e+00 -8.8486513447e+00  8.8486513447e+00  0.0000000000e+00 0. 9.
       21     1     1     2   104   101  6.9241210271e-01  5.9788403827e+00  1.0061495356e+01  1.1724318985e+01  0.0000000000e+00 0. 9.
       21     1     1     2   102   103 -6.9241210271e-01 -5.9788403827e+00 -6.8876123471e+00  9.1468667142e+00  0.0000000000e+00 0. 9.
#pdf   21   21  1.202253e-01  8.848651e-02  6.018801e+00  9.546378e-01  1.310603e+00
</event>
<event>
     4  9999  1.000000e+00  5.830033e+00  7.582595e-03  2.305788e-01
       21    -1     0     0   102   103  0.0000000000e+00  0.0000000000e+00  7.5591718422e-01  7.5591718422e-01  0.0000000000e+00 0. 9.
        2    -1     0     0   101     0  0.0000000000e+00  0.0000000000e+00 -4.5018450952e+01  4.5018450952e+01  0.0000000000e+00 0. 9.
       21     1     1     2   101   103 -1.2062259343e+00 -5.6991175930e+00 -2.2906725214e+01  2.3635841055e+01  0.0000000000e+00 0. 9.
        2     1     1     2   102     0  1.2062259343e+00  5.6991175930e+00 -2.1355808553e+01  2.2138527081e+01  3.3000000000e-01 0. 9.
#pdf   21    2  7.559172e-03  4.501845e-01  5.830033e+00  7.045570e+00  2.645861e-01
</event>
<event>
     4  9999  1.000000e+00  5.148397e+00  7.572599e-03  2.389373e-01
       21    -1     0     0   102   101  0.0000000000e+00  0.0000000000e+00  1.6680648301e+00  1.6680648301e+00  0.0000000000e+00 0. 9.
        2    -1     0     0   101     0  0.0000000000e+00  0.0000000000e+00 -2.0957012327e+01  2.0957012327e+01  0.0000000000e+00 0. 9.
       21     1     1     2   102   103  4.1763554846e+00 -3.0037945794e+00 -4.0789243022e+00  6.5652380362e+00  0.0000000000e+00 0. 9.
        2     1     1     2   103     0 -4.1763554846e+00  3.0037945794e+00 -1.5210023195e+01  1.6059839121e+01  3.3000000000e-01 0. 9.
#pdf   21    2  1.668065e-02  2.095701e-01  5.148397e+00  4.485080e+00  5.879723e-01
</event>
<event>
     4  9999  1.000000e+00  5.428177e+00  7.576850e-03  2.353070e-01
       21    -1     0     0   101   102  0.0000000000e+00  0.0000000000e+00  1.7079369716e+01  1.7079369716e+01  0.0000000000e+00 0. 9.
       21    -1     0     0   103   101  0.0000000000e+00  0.0000000000e+00 -1.3503488284e+01  1.3503488284e+01  0.0000000000e+00 0. 9.
       21     1     1     2   103   104  9.7009462912e-02 -5.4273101386e+00 -1.2493315693e+01  1.3621602079e+01  0.0000000000e+00 0. 9.
       21     1     1     2   104   102 -9.7009462912e-02  5.4273101386e+00  1.6069197126e+01  1.6961255922e+01  0.0000000000e+00 0. 9.
#pdf   21   21  1.707937e-01  1.350349e-01  5.428177e+00  6.524838e-01  8.509062e-01
</event>
</LesHouchesEvents>
